<?xml version="1.0" encoding="UTF-8"?>

<!-- generated on 2025-10-29 12:46:11 by Eclipse SUMO GUI Version 1.24.0
<sumoConfiguration xmlns:xsi="http://www.w3.org/2001/XMLSchema-instance" xsi:noNamespaceSchemaLocation="http://sumo.dlr.de/xsd/sumoConfiguration.xsd">

    <input>
        <net-file value="C:\Users\prate\AppData\Local\Temp\tmpsa77th7o\osm.net.xml.gz"/>
        <route-files value="C:\Users\prate\AppData\Local\Temp\tmpsa77th7o\osm_pt.rou.xml,C:\Users\prate\AppData\Local\Temp\tmpsa77th7o\osm.bus.trips.xml,C:\Users\prate\AppData\Local\Temp\tmpsa77th7o\osm.motorcycle.trips.xml,C:\Users\prate\AppData\Local\Temp\tmpsa77th7o\osm.passenger.trips.xml,C:\Users\prate\AppData\Local\Temp\tmpsa77th7o\osm.truck.trips.xml"/>
        <additional-files value="C:\Users\prate\AppData\Local\Temp\tmpsa77th7o\osm.poly.xml.gz,C:\Users\prate\AppData\Local\Temp\tmpsa77th7o\osm_stops.add.xml,C:\Users\prate\AppData\Local\Temp\tmpsa77th7o\output.add.xml"/>
    </input>

    <output>
        <tripinfo-output value="C:\Users\prate\AppData\Local\Temp\tmpsa77th7o\tripinfos.xml"/>
        <stop-output value="C:\Users\prate\AppData\Local\Temp\tmpsa77th7o\stopinfos.xml"/>
        <statistic-output value="C:\Users\prate\AppData\Local\Temp\tmpsa77th7o\stats.xml"/>
    </output>

    <processing>
        <ignore-route-errors value="true"/>
        <tls.actuated.jam-threshold value="30"/>
    </processing>

    <routing>
        <device.rerouting.adaptation-steps value="18"/>
        <device.rerouting.adaptation-interval value="10"/>
    </routing>

    <report>
        <verbose value="true"/>
        <duration-log.statistics value="true"/>
        <no-step-log value="true"/>
    </report>

    <gui_only>
        <gui-settings-file value="C:\Users\prate\AppData\Local\Temp\tmpsa77th7o\osm.view.xml"/>
    </gui_only>

</sumoConfiguration>
-->

<tripinfos xmlns:xsi="http://www.w3.org/2001/XMLSchema-instance" xsi:noNamespaceSchemaLocation="http://sumo.dlr.de/xsd/tripinfo_file.xsd">
    <tripinfo id="veh2" depart="6.00" departLane="-408152821_0" departPos="5.10" departSpeed="0.00" departDelay="0.60" arrival="50.00" arrivalLane="-1079087279#4_0" arrivalPos="36.26" arrivalSpeed="11.61" duration="44.00" routeLength="428.46" waitingTime="0.00" waitingCount="0" stopTime="0.00" timeLoss="11.67" rerouteNo="1" devices="tripinfo_veh2 routing_veh2" vType="veh_passenger" speedFactor="0.91" vaporized=""/>
    <tripinfo id="motorcycle21" depart="27.00" departLane="59358814#4_0" departPos="2.30" departSpeed="0.00" departDelay="0.55" arrival="52.00" arrivalLane="-59358779#1_0" arrivalPos="35.65" arrivalSpeed="10.41" duration="25.00" routeLength="241.24" waitingTime="0.00" waitingCount="0" stopTime="0.00" timeLoss="7.22" rerouteNo="1" devices="tripinfo_motorcycle21 routing_motorcycle21" vType="motorcycle_motorcycle" speedFactor="0.87" vaporized=""/>
    <tripinfo id="motorcycle5" depart="7.00" departLane="-59358848#7_0" departPos="2.30" departSpeed="0.00" departDelay="0.70" arrival="61.00" arrivalLane="59358754_0" arrivalPos="0.20" arrivalSpeed="3.68" duration="54.00" routeLength="677.62" waitingTime="0.00" waitingCount="0" stopTime="0.00" timeLoss="12.38" rerouteNo="1" devices="tripinfo_motorcycle5 routing_motorcycle5" vType="motorcycle_motorcycle" speedFactor="0.86" vaporized=""/>
    <tripinfo id="motorcycle37" depart="47.00" departLane="693606163#7_0" departPos="2.30" departSpeed="0.00" departDelay="0.40" arrival="64.00" arrivalLane="-330032677#2_0" arrivalPos="18.75" arrivalSpeed="12.62" duration="17.00" routeLength="143.87" waitingTime="0.00" waitingCount="0" stopTime="0.00" timeLoss="4.44" rerouteNo="1" devices="tripinfo_motorcycle37 routing_motorcycle37" vType="motorcycle_motorcycle" speedFactor="0.96" vaporized=""/>
    <tripinfo id="motorcycle28" depart="36.00" departLane="-330030517#1_0" departPos="2.30" departSpeed="0.00" departDelay="0.73" arrival="75.00" arrivalLane="1192378662#1_0" arrivalPos="153.44" arrivalSpeed="25.72" duration="39.00" routeLength="451.82" waitingTime="0.00" waitingCount="0" stopTime="0.00" timeLoss="10.16" rerouteNo="1" devices="tripinfo_motorcycle28 routing_motorcycle28" vType="motorcycle_motorcycle" speedFactor="1.01" vaporized=""/>
    <tripinfo id="veh13" depart="36.00" departLane="126774193#5_1" departPos="5.10" departSpeed="0.00" departDelay="0.91" arrival="77.00" arrivalLane="59358819#1_0" arrivalPos="74.70" arrivalSpeed="14.17" duration="41.00" routeLength="511.19" waitingTime="0.00" waitingCount="0" stopTime="0.00" timeLoss="14.74" rerouteNo="1" devices="tripinfo_veh13 routing_veh13" vType="veh_passenger" speedFactor="1.09" vaporized=""/>
    <tripinfo id="motorcycle9" depart="12.00" departLane="-59358848#9_0" departPos="2.30" departSpeed="0.00" departDelay="0.66" arrival="80.00" arrivalLane="-31756240#5_0" arrivalPos="28.25" arrivalSpeed="19.99" duration="68.00" routeLength="980.46" waitingTime="0.00" waitingCount="0" stopTime="0.00" timeLoss="16.68" rerouteNo="1" devices="tripinfo_motorcycle9 routing_motorcycle9" vType="motorcycle_motorcycle" speedFactor="1.12" vaporized=""/>
    <tripinfo id="motorcycle24" depart="31.00" departLane="492431225#0_0" departPos="2.30" departSpeed="0.00" departDelay="0.77" arrival="80.00" arrivalLane="-126774207#2_0" arrivalPos="160.36" arrivalSpeed="13.23" duration="49.00" routeLength="561.99" waitingTime="0.00" waitingCount="0" stopTime="0.00" timeLoss="12.41" rerouteNo="1" devices="tripinfo_motorcycle24 routing_motorcycle24" vType="motorcycle_motorcycle" speedFactor="1.13" vaporized=""/>
    <tripinfo id="motorcycle35" depart="45.00" departLane="105317908#1_0" departPos="2.30" departSpeed="0.00" departDelay="0.92" arrival="81.00" arrivalLane="-1103080136#0_0" arrivalPos="0.20" arrivalSpeed="12.50" duration="36.00" routeLength="305.95" waitingTime="0.00" waitingCount="0" stopTime="0.00" timeLoss="8.09" rerouteNo="1" devices="tripinfo_motorcycle35 routing_motorcycle35" vType="motorcycle_motorcycle" speedFactor="0.90" vaporized=""/>
    <tripinfo id="veh11" depart="30.00" departLane="330080541#3_0" departPos="5.10" departSpeed="0.00" departDelay="0.31" arrival="82.00" arrivalLane="66079116_0" arrivalPos="0.20" arrivalSpeed="5.43" duration="52.00" routeLength="462.37" waitingTime="17.00" waitingCount="1" stopTime="0.00" timeLoss="33.55" rerouteNo="1" devices="tripinfo_veh11 routing_veh11" vType="veh_passenger" speedFactor="0.96" vaporized=""/>
    <tripinfo id="motorcycle19" depart="24.00" departLane="36054475#6_0" departPos="2.30" departSpeed="0.00" departDelay="0.07" arrival="85.00" arrivalLane="-31756240#4_0" arrivalPos="58.82" arrivalSpeed="18.93" duration="61.00" routeLength="860.21" waitingTime="1.00" waitingCount="1" stopTime="0.00" timeLoss="15.02" rerouteNo="1" devices="tripinfo_motorcycle19 routing_motorcycle19" vType="motorcycle_motorcycle" speedFactor="0.89" vaporized=""/>
    <tripinfo id="motorcycle2" depart="3.00" departLane="36054475#1_0" departPos="2.30" departSpeed="0.00" departDelay="0.48" arrival="86.00" arrivalLane="532195159_0" arrivalPos="64.18" arrivalSpeed="13.23" duration="83.00" routeLength="911.37" waitingTime="0.00" waitingCount="0" stopTime="0.00" timeLoss="20.46" rerouteNo="1" devices="tripinfo_motorcycle2 routing_motorcycle2" vType="motorcycle_motorcycle" speedFactor="1.05" vaporized=""/>
    <tripinfo id="motorcycle14" depart="18.00" departLane="-1340268915_0" departPos="2.30" departSpeed="0.00" departDelay="0.37" arrival="86.00" arrivalLane="59358869_0" arrivalPos="122.92" arrivalSpeed="11.21" duration="68.00" routeLength="699.11" waitingTime="0.00" waitingCount="0" stopTime="0.00" timeLoss="12.32" rerouteNo="1" devices="tripinfo_motorcycle14 routing_motorcycle14" vType="motorcycle_motorcycle" speedFactor="0.94" vaporized=""/>
    <tripinfo id="motorcycle48" depart="61.00" departLane="-36054478#5_0" departPos="2.30" departSpeed="0.00" departDelay="0.54" arrival="86.00" arrivalLane="-36054475#5_0" arrivalPos="84.30" arrivalSpeed="13.32" duration="25.00" routeLength="245.56" waitingTime="0.00" waitingCount="0" stopTime="0.00" timeLoss="5.85" rerouteNo="1" devices="tripinfo_motorcycle48 routing_motorcycle48" vType="motorcycle_motorcycle" speedFactor="1.02" vaporized=""/>
    <tripinfo id="motorcycle11" depart="14.00" departLane="464465186#6_0" departPos="2.30" departSpeed="0.00" departDelay="0.15" arrival="89.00" arrivalLane="31756240#3_0" arrivalPos="22.69" arrivalSpeed="14.75" duration="75.00" routeLength="1062.14" waitingTime="0.00" waitingCount="0" stopTime="0.00" timeLoss="26.05" rerouteNo="1" devices="tripinfo_motorcycle11 routing_motorcycle11" vType="motorcycle_motorcycle" speedFactor="0.93" vaporized=""/>
    <tripinfo id="veh6" depart="17.00" departLane="-693606163#3_0" departPos="5.10" departSpeed="0.00" departDelay="0.81" arrival="89.00" arrivalLane="-995124341#1_0" arrivalPos="0.10" arrivalSpeed="5.07" duration="72.00" routeLength="719.39" waitingTime="0.00" waitingCount="0" stopTime="0.00" timeLoss="13.50" rerouteNo="1" devices="tripinfo_veh6 routing_veh6" vType="veh_passenger" speedFactor="0.94" vaporized=""/>
    <tripinfo id="motorcycle15" depart="19.00" departLane="59358724#1_0" departPos="2.30" departSpeed="0.00" departDelay="0.11" arrival="91.00" arrivalLane="-59358735#0_0" arrivalPos="28.47" arrivalSpeed="13.90" duration="72.00" routeLength="786.78" waitingTime="0.00" waitingCount="0" stopTime="0.00" timeLoss="18.11" rerouteNo="1" devices="tripinfo_motorcycle15 routing_motorcycle15" vType="motorcycle_motorcycle" speedFactor="1.16" vaporized=""/>
    <tripinfo id="motorcycle13" depart="17.00" departLane="-59358848#9_0" departPos="2.30" departSpeed="0.00" departDelay="0.63" arrival="93.00" arrivalLane="-126774207#1_0" arrivalPos="16.86" arrivalSpeed="11.68" duration="76.00" routeLength="627.70" waitingTime="4.00" waitingCount="1" stopTime="0.00" timeLoss="21.39" rerouteNo="1" devices="tripinfo_motorcycle13 routing_motorcycle13" vType="motorcycle_motorcycle" speedFactor="0.94" vaporized=""/>
    <tripinfo id="motorcycle27" depart="35.00" departLane="693606163#3_0" departPos="2.30" departSpeed="0.00" departDelay="0.99" arrival="94.00" arrivalLane="1378838837#3_0" arrivalPos="29.56" arrivalSpeed="5.43" duration="59.00" routeLength="601.01" waitingTime="0.00" waitingCount="0" stopTime="0.00" timeLoss="12.46" rerouteNo="1" devices="tripinfo_motorcycle27 routing_motorcycle27" vType="motorcycle_motorcycle" speedFactor="1.15" vaporized=""/>
    <tripinfo id="veh14" depart="38.00" departLane="-36054712#0_0" departPos="5.10" departSpeed="0.00" departDelay="0.21" arrival="94.00" arrivalLane="-568518767#1_0" arrivalPos="37.18" arrivalSpeed="12.94" duration="56.00" routeLength="528.95" waitingTime="0.00" waitingCount="0" stopTime="0.00" timeLoss="17.10" rerouteNo="1" devices="tripinfo_veh14 routing_veh14" vType="veh_passenger" speedFactor="1.03" vaporized=""/>
    <tripinfo id="veh19" depart="52.00" departLane="-59358848#8_0" departPos="5.10" departSpeed="0.00" departDelay="0.72" arrival="94.00" arrivalLane="543470383#3_0" arrivalPos="21.12" arrivalSpeed="17.94" duration="42.00" routeLength="477.21" waitingTime="0.00" waitingCount="0" stopTime="0.00" timeLoss="11.38" rerouteNo="1" devices="tripinfo_veh19 routing_veh19" vType="veh_passenger" speedFactor="1.03" vaporized=""/>
    <tripinfo id="motorcycle8" depart="12.00" departLane="59358744#1_0" departPos="2.30" departSpeed="0.00" departDelay="1.92" arrival="100.00" arrivalLane="59358695#2_0" arrivalPos="108.99" arrivalSpeed="11.69" duration="88.00" routeLength="808.11" waitingTime="10.00" waitingCount="1" stopTime="0.00" timeLoss="38.24" rerouteNo="1" devices="tripinfo_motorcycle8 routing_motorcycle8" vType="motorcycle_motorcycle" speedFactor="1.05" vaporized=""/>
    <tripinfo id="motorcycle26" depart="33.00" departLane="-36054478#5_0" departPos="2.30" departSpeed="0.00" departDelay="0.25" arrival="100.00" arrivalLane="31756240#7_0" arrivalPos="112.30" arrivalSpeed="23.63" duration="67.00" routeLength="786.18" waitingTime="2.00" waitingCount="1" stopTime="0.00" timeLoss="19.47" rerouteNo="1" devices="tripinfo_motorcycle26 routing_motorcycle26" vType="motorcycle_motorcycle" speedFactor="1.18" vaporized=""/>
    <tripinfo id="motorcycle47" depart="60.00" departLane="-59358779#1_0" departPos="2.30" departSpeed="0.00" departDelay="0.80" arrival="103.00" arrivalLane="-59358814#1_0" arrivalPos="35.56" arrivalSpeed="13.54" duration="43.00" routeLength="555.21" waitingTime="0.00" waitingCount="0" stopTime="0.00" timeLoss="7.50" rerouteNo="1" devices="tripinfo_motorcycle47 routing_motorcycle47" vType="motorcycle_motorcycle" speedFactor="1.17" vaporized=""/>
    <tripinfo id="motorcycle3" depart="4.00" departLane="1054124408_0" departPos="2.30" departSpeed="0.00" departDelay="0.22" arrival="105.00" arrivalLane="1227978413_0" arrivalPos="17.01" arrivalSpeed="11.01" duration="101.00" routeLength="1238.85" waitingTime="1.00" waitingCount="1" stopTime="0.00" timeLoss="23.82" rerouteNo="1" devices="tripinfo_motorcycle3 routing_motorcycle3" vType="motorcycle_motorcycle" speedFactor="0.89" vaporized=""/>
    <tripinfo id="motorcycle6" depart="8.00" departLane="1378838837#3_0" departPos="2.30" departSpeed="0.00" departDelay="0.44" arrival="105.00" arrivalLane="408152821_0" arrivalPos="25.52" arrivalSpeed="13.98" duration="97.00" routeLength="1097.40" waitingTime="11.00" waitingCount="1" stopTime="0.00" timeLoss="34.03" rerouteNo="1" devices="tripinfo_motorcycle6 routing_motorcycle6" vType="motorcycle_motorcycle" speedFactor="1.09" vaporized=""/>
    <tripinfo id="motorcycle18" depart="24.00" departLane="31756240#1_0" departPos="2.30" departSpeed="0.00" departDelay="1.33" arrival="105.00" arrivalLane="59358848#8_0" arrivalPos="20.08" arrivalSpeed="12.87" duration="81.00" routeLength="938.85" waitingTime="4.00" waitingCount="1" stopTime="0.00" timeLoss="28.03" rerouteNo="1" devices="tripinfo_motorcycle18 routing_motorcycle18" vType="motorcycle_motorcycle" speedFactor="0.97" vaporized=""/>
    <tripinfo id="motorcycle40" depart="51.00" departLane="126774193#5_1" departPos="2.30" departSpeed="0.00" departDelay="0.62" arrival="107.00" arrivalLane="59358856#1_0" arrivalPos="34.86" arrivalSpeed="13.40" duration="56.00" routeLength="585.42" waitingTime="4.00" waitingCount="1" stopTime="0.00" timeLoss="26.05" rerouteNo="1" devices="tripinfo_motorcycle40 routing_motorcycle40" vType="motorcycle_motorcycle" speedFactor="1.04" vaporized=""/>
    <tripinfo id="motorcycle53" depart="67.00" departLane="-59358856#3_0" departPos="2.30" departSpeed="0.00" departDelay="0.25" arrival="107.00" arrivalLane="776970595#1_0" arrivalPos="28.07" arrivalSpeed="16.73" duration="40.00" routeLength="488.00" waitingTime="0.00" waitingCount="0" stopTime="0.00" timeLoss="8.18" rerouteNo="1" devices="tripinfo_motorcycle53 routing_motorcycle53" vType="motorcycle_motorcycle" speedFactor="1.14" vaporized=""/>
    <tripinfo id="motorcycle16" depart="21.00" departLane="59358782#2_0" departPos="2.30" departSpeed="0.00" departDelay="0.85" arrival="110.00" arrivalLane="126774207#3_0" arrivalPos="28.03" arrivalSpeed="12.58" duration="89.00" routeLength="1017.39" waitingTime="15.00" waitingCount="2" stopTime="0.00" timeLoss="36.86" rerouteNo="1" devices="tripinfo_motorcycle16 routing_motorcycle16" vType="motorcycle_motorcycle" speedFactor="1.02" vaporized=""/>
    <tripinfo id="motorcycle66" depart="84.00" departLane="27227507#0_0" departPos="2.30" departSpeed="0.00" departDelay="0.87" arrival="110.00" arrivalLane="36054478#2_0" arrivalPos="49.79" arrivalSpeed="12.04" duration="26.00" routeLength="363.55" waitingTime="0.00" waitingCount="0" stopTime="0.00" timeLoss="5.72" rerouteNo="1" devices="tripinfo_motorcycle66 routing_motorcycle66" vType="motorcycle_motorcycle" speedFactor="1.02" vaporized=""/>
    <tripinfo id="truck0" depart="0.00" departLane="-217573745_0" departPos="7.20" departSpeed="0.00" departDelay="0.00" arrival="111.00" arrivalLane="-59358782#1_0" arrivalPos="231.90" arrivalSpeed="13.58" duration="111.00" routeLength="1368.80" waitingTime="0.00" waitingCount="0" stopTime="0.00" timeLoss="36.94" rerouteNo="1" devices="tripinfo_truck0 routing_truck0" vType="truck_truck" speedFactor="1.02" vaporized=""/>
    <tripinfo id="motorcycle64" depart="81.00" departLane="-59358848#9_0" departPos="2.30" departSpeed="0.00" departDelay="0.39" arrival="112.00" arrivalLane="-59358759#3_0" arrivalPos="21.44" arrivalSpeed="14.26" duration="31.00" routeLength="325.77" waitingTime="0.00" waitingCount="0" stopTime="0.00" timeLoss="6.88" rerouteNo="1" devices="tripinfo_motorcycle64 routing_motorcycle64" vType="motorcycle_motorcycle" speedFactor="1.04" vaporized=""/>
    <tripinfo id="veh7" depart="19.00" departLane="36054710#6_0" departPos="5.10" departSpeed="0.00" departDelay="0.11" arrival="112.00" arrivalLane="-59358814#4_0" arrivalPos="47.76" arrivalSpeed="14.15" duration="93.00" routeLength="1031.09" waitingTime="5.00" waitingCount="2" stopTime="0.00" timeLoss="43.51" rerouteNo="1" devices="tripinfo_veh7 routing_veh7" vType="veh_passenger" speedFactor="1.09" vaporized=""/>
    <tripinfo id="motorcycle0" depart="0.00" departLane="-1112847470_0" departPos="2.30" departSpeed="2.95" departDelay="0.00" arrival="115.00" arrivalLane="36054478#4_0" arrivalPos="205.42" arrivalSpeed="12.12" duration="115.00" routeLength="948.94" waitingTime="30.00" waitingCount="1" stopTime="0.00" timeLoss="52.34" rerouteNo="1" devices="tripinfo_motorcycle0 routing_motorcycle0" vType="motorcycle_motorcycle" speedFactor="1.06" vaporized=""/>
    <tripinfo id="motorcycle4" depart="6.00" departLane="-1079087279#0_0" departPos="2.30" departSpeed="0.00" departDelay="0.96" arrival="115.00" arrivalLane="-995124341#0_0" arrivalPos="14.41" arrivalSpeed="11.21" duration="109.00" routeLength="908.82" waitingTime="24.00" waitingCount="2" stopTime="0.00" timeLoss="45.64" rerouteNo="1" devices="tripinfo_motorcycle4 routing_motorcycle4" vType="motorcycle_motorcycle" speedFactor="0.94" vaporized=""/>
    <tripinfo id="motorcycle39" depart="50.00" departLane="59358814#7_0" departPos="2.30" departSpeed="0.00" departDelay="0.88" arrival="115.00" arrivalLane="59358782#2_0" arrivalPos="199.51" arrivalSpeed="11.93" duration="65.00" routeLength="693.39" waitingTime="0.00" waitingCount="0" stopTime="0.00" timeLoss="15.42" rerouteNo="1" devices="tripinfo_motorcycle39 routing_motorcycle39" vType="motorcycle_motorcycle" speedFactor="1.04" vaporized=""/>
    <tripinfo id="veh10" depart="27.00" departLane="59358897_0" departPos="5.10" departSpeed="15.86" departDelay="0.01" arrival="115.00" arrivalLane="-330031963_0" arrivalPos="66.20" arrivalSpeed="15.51" duration="88.00" routeLength="833.66" waitingTime="17.00" waitingCount="1" stopTime="0.00" timeLoss="45.49" rerouteNo="1" devices="tripinfo_veh10 routing_veh10" vType="veh_passenger" speedFactor="1.14" vaporized=""/>
    <tripinfo id="motorcycle50" depart="63.00" departLane="693606163#10_0" departPos="2.30" departSpeed="0.00" departDelay="0.02" arrival="118.00" arrivalLane="349813159#0_0" arrivalPos="30.57" arrivalSpeed="13.14" duration="55.00" routeLength="596.79" waitingTime="0.00" waitingCount="0" stopTime="0.00" timeLoss="13.92" rerouteNo="1" devices="tripinfo_motorcycle50 routing_motorcycle50" vType="motorcycle_motorcycle" speedFactor="1.00" vaporized=""/>
    <tripinfo id="motorcycle25" depart="32.00" departLane="31756240#5_0" departPos="2.30" departSpeed="0.00" departDelay="0.51" arrival="120.00" arrivalLane="-59358848#10_0" arrivalPos="32.84" arrivalSpeed="11.98" duration="88.00" routeLength="1066.48" waitingTime="0.00" waitingCount="0" stopTime="0.00" timeLoss="24.88" rerouteNo="1" devices="tripinfo_motorcycle25 routing_motorcycle25" vType="motorcycle_motorcycle" speedFactor="0.93" vaporized=""/>
    <tripinfo id="motorcycle38" depart="48.00" departLane="36054720#1_0" departPos="2.30" departSpeed="0.00" departDelay="0.14" arrival="121.00" arrivalLane="776970595#1_0" arrivalPos="28.07" arrivalSpeed="16.76" duration="73.00" routeLength="1035.84" waitingTime="0.00" waitingCount="0" stopTime="0.00" timeLoss="24.26" rerouteNo="1" devices="tripinfo_motorcycle38 routing_motorcycle38" vType="motorcycle_motorcycle" speedFactor="1.09" vaporized=""/>
    <tripinfo id="motorcycle57" depart="72.00" departLane="126774207#2_0" departPos="2.30" departSpeed="0.00" departDelay="0.21" arrival="121.00" arrivalLane="59358835#1_0" arrivalPos="74.26" arrivalSpeed="13.36" duration="49.00" routeLength="590.82" waitingTime="0.00" waitingCount="0" stopTime="0.00" timeLoss="9.17" rerouteNo="1" devices="tripinfo_motorcycle57 routing_motorcycle57" vType="motorcycle_motorcycle" speedFactor="1.12" vaporized=""/>
    <tripinfo id="motorcycle20" depart="26.00" departLane="330036960_0" departPos="2.30" departSpeed="0.00" departDelay="0.81" arrival="123.00" arrivalLane="492431226#0_0" arrivalPos="198.20" arrivalSpeed="19.44" duration="97.00" routeLength="1177.56" waitingTime="0.00" waitingCount="0" stopTime="0.00" timeLoss="27.03" rerouteNo="1" devices="tripinfo_motorcycle20 routing_motorcycle20" vType="motorcycle_motorcycle" speedFactor="0.83" vaporized=""/>
    <tripinfo id="veh17" depart="46.00" departLane="-552801723_0" departPos="5.10" departSpeed="0.00" departDelay="0.12" arrival="123.00" arrivalLane="1167293941#1_0" arrivalPos="84.96" arrivalSpeed="19.69" duration="77.00" routeLength="915.33" waitingTime="1.00" waitingCount="1" stopTime="0.00" timeLoss="27.02" rerouteNo="1" devices="tripinfo_veh17 routing_veh17" vType="veh_passenger" speedFactor="1.10" vaporized=""/>
    <tripinfo id="motorcycle17" depart="22.00" departLane="-326870588_0" departPos="2.30" departSpeed="14.03" departDelay="0.59" arrival="124.00" arrivalLane="59358755#1_0" arrivalPos="51.82" arrivalSpeed="12.43" duration="102.00" routeLength="799.45" waitingTime="20.00" waitingCount="2" stopTime="0.00" timeLoss="38.40" rerouteNo="1" devices="tripinfo_motorcycle17 routing_motorcycle17" vType="motorcycle_motorcycle" speedFactor="1.01" vaporized=""/>
    <tripinfo id="motorcycle12" depart="16.00" departLane="126774207#0_0" departPos="2.30" departSpeed="0.00" departDelay="0.89" arrival="128.00" arrivalLane="217573747_0" arrivalPos="132.98" arrivalSpeed="10.75" duration="112.00" routeLength="1310.78" waitingTime="0.00" waitingCount="0" stopTime="0.00" timeLoss="34.92" rerouteNo="1" devices="tripinfo_motorcycle12 routing_motorcycle12" vType="motorcycle_motorcycle" speedFactor="0.88" vaporized=""/>
    <tripinfo id="motorcycle29" depart="38.00" departLane="492431224#2_0" departPos="2.30" departSpeed="0.00" departDelay="1.47" arrival="128.00" arrivalLane="59358884#1_0" arrivalPos="111.57" arrivalSpeed="13.62" duration="90.00" routeLength="801.63" waitingTime="25.00" waitingCount="1" stopTime="0.00" timeLoss="39.20" rerouteNo="1" devices="tripinfo_motorcycle29 routing_motorcycle29" vType="motorcycle_motorcycle" speedFactor="1.17" vaporized=""/>
    <tripinfo id="motorcycle32" depart="41.00" departLane="-31756240#0_0" departPos="2.30" departSpeed="0.00" departDelay="0.70" arrival="130.00" arrivalLane="349807544#1_0" arrivalPos="37.45" arrivalSpeed="11.18" duration="89.00" routeLength="1051.88" waitingTime="6.00" waitingCount="2" stopTime="0.00" timeLoss="30.35" rerouteNo="1" devices="tripinfo_motorcycle32 routing_motorcycle32" vType="motorcycle_motorcycle" speedFactor="0.97" vaporized=""/>
    <tripinfo id="veh3" depart="9.00" departLane="-330036960_0" departPos="5.10" departSpeed="0.00" departDelay="0.90" arrival="132.00" arrivalLane="-105317908#0_0" arrivalPos="14.17" arrivalSpeed="13.66" duration="123.00" routeLength="1128.34" waitingTime="6.00" waitingCount="1" stopTime="0.00" timeLoss="46.18" rerouteNo="1" devices="tripinfo_veh3 routing_veh3" vType="veh_passenger" speedFactor="1.00" vaporized=""/>
    <tripinfo id="veh24" depart="65.00" departLane="995124341#0_0" departPos="5.10" departSpeed="12.38" departDelay="0.22" arrival="132.00" arrivalLane="-59358856#1_0" arrivalPos="34.86" arrivalSpeed="12.02" duration="67.00" routeLength="643.01" waitingTime="0.00" waitingCount="0" stopTime="0.00" timeLoss="14.78" rerouteNo="1" devices="tripinfo_veh24 routing_veh24" vType="veh_passenger" speedFactor="0.89" vaporized=""/>
    <tripinfo id="veh33" depart="93.00" departLane="126774193#8_1" departPos="0.20" departSpeed="0.00" departDelay="3.93" arrival="133.00" arrivalLane="-59358750#0_0" arrivalPos="74.14" arrivalSpeed="13.45" duration="40.00" routeLength="491.59" waitingTime="0.00" waitingCount="0" stopTime="0.00" timeLoss="13.16" rerouteNo="1" devices="tripinfo_veh33 routing_veh33" vType="veh_passenger" speedFactor="1.03" vaporized=""/>
    <tripinfo id="motorcycle36" depart="46.00" departLane="-105201129#1_0" departPos="2.30" departSpeed="0.00" departDelay="0.66" arrival="134.00" arrivalLane="59358814#7_0" arrivalPos="41.49" arrivalSpeed="12.17" duration="88.00" routeLength="936.96" waitingTime="10.00" waitingCount="1" stopTime="0.00" timeLoss="31.97" rerouteNo="1" devices="tripinfo_motorcycle36 routing_motorcycle36" vType="motorcycle_motorcycle" speedFactor="1.03" vaporized=""/>
    <tripinfo id="truck2" depart="24.00" departLane="-59358735#2_0" departPos="7.20" departSpeed="0.00" departDelay="0.38" arrival="134.00" arrivalLane="-330031963_0" arrivalPos="66.20" arrivalSpeed="11.03" duration="110.00" routeLength="939.45" waitingTime="0.00" waitingCount="0" stopTime="0.00" timeLoss="44.31" rerouteNo="1" devices="tripinfo_truck2 routing_truck2" vType="truck_truck" speedFactor="1.06" vaporized=""/>
    <tripinfo id="veh32" depart="87.00" departLane="330030517#2_0" departPos="5.10" departSpeed="0.00" departDelay="0.63" arrival="135.00" arrivalLane="217573744_0" arrivalPos="23.92" arrivalSpeed="10.73" duration="48.00" routeLength="538.41" waitingTime="0.00" waitingCount="0" stopTime="0.00" timeLoss="11.10" rerouteNo="1" devices="tripinfo_veh32 routing_veh32" vType="veh_passenger" speedFactor="0.84" vaporized=""/>
    <tripinfo id="motorcycle7" depart="9.00" departLane="105201129#4_0" departPos="2.30" departSpeed="0.00" departDelay="0.18" arrival="137.00" arrivalLane="-36054475#4_0" arrivalPos="110.22" arrivalSpeed="13.98" duration="128.00" routeLength="2091.45" waitingTime="0.00" waitingCount="0" stopTime="0.00" timeLoss="21.11" rerouteNo="1" devices="tripinfo_motorcycle7 routing_motorcycle7" vType="motorcycle_motorcycle" speedFactor="1.03" vaporized=""/>
    <tripinfo id="motorcycle42" depart="53.00" departLane="59358750#0_0" departPos="2.30" departSpeed="13.85" departDelay="0.10" arrival="139.00" arrivalLane="-59358856#1_0" arrivalPos="34.86" arrivalSpeed="13.16" duration="86.00" routeLength="1079.09" waitingTime="8.00" waitingCount="2" stopTime="0.00" timeLoss="33.60" rerouteNo="1" devices="tripinfo_motorcycle42 routing_motorcycle42" vType="motorcycle_motorcycle" speedFactor="1.00" vaporized=""/>
    <tripinfo id="motorcycle79" depart="100.00" departLane="132909371#0_0" departPos="2.30" departSpeed="13.43" departDelay="0.50" arrival="139.00" arrivalLane="217573747_0" arrivalPos="132.98" arrivalSpeed="10.61" duration="39.00" routeLength="383.06" waitingTime="0.00" waitingCount="0" stopTime="0.00" timeLoss="8.47" rerouteNo="1" devices="tripinfo_motorcycle79 routing_motorcycle79" vType="motorcycle_motorcycle" speedFactor="0.97" vaporized=""/>
    <tripinfo id="veh5" depart="14.00" departLane="800625776_0" departPos="5.10" departSpeed="6.52" departDelay="0.51" arrival="146.00" arrivalLane="36054710#4_0" arrivalPos="37.17" arrivalSpeed="13.64" duration="132.00" routeLength="642.95" waitingTime="55.00" waitingCount="3" stopTime="0.00" timeLoss="87.79" rerouteNo="1" devices="tripinfo_veh5 routing_veh5" vType="veh_passenger" speedFactor="0.98" vaporized=""/>
    <tripinfo id="veh18" depart="49.00" departLane="492431226#4_1" departPos="5.10" departSpeed="0.00" departDelay="0.42" arrival="146.00" arrivalLane="36054478#3_0" arrivalPos="51.50" arrivalSpeed="13.30" duration="97.00" routeLength="724.15" waitingTime="34.00" waitingCount="1" stopTime="0.00" timeLoss="59.48" rerouteNo="1" devices="tripinfo_veh18 routing_veh18" vType="veh_passenger" speedFactor="1.03" vaporized=""/>
    <tripinfo id="bus4" depart="76.00" departLane="543470383#1_0" departPos="12.10" departSpeed="0.00" departDelay="0.02" arrival="149.00" arrivalLane="-105201129#4_0" arrivalPos="50.22" arrivalSpeed="12.85" duration="73.00" routeLength="877.04" waitingTime="0.00" waitingCount="0" stopTime="0.00" timeLoss="30.17" rerouteNo="1" devices="tripinfo_bus4 routing_bus4" vType="bus_bus" speedFactor="1.00" vaporized=""/>
    <tripinfo id="veh0" depart="0.00" departLane="105317908#1_0" departPos="5.10" departSpeed="0.00" departDelay="0.00" arrival="153.00" arrivalLane="164029919_0" arrivalPos="82.50" arrivalSpeed="13.93" duration="153.00" routeLength="1805.64" waitingTime="13.00" waitingCount="1" stopTime="0.00" timeLoss="57.41" rerouteNo="1" devices="tripinfo_veh0 routing_veh0" vType="veh_passenger" speedFactor="1.01" vaporized=""/>
    <tripinfo id="motorcycle73" depart="92.00" departLane="331683241#1_0" departPos="2.30" departSpeed="0.00" departDelay="0.05" arrival="154.00" arrivalLane="-59358695#3_0" arrivalPos="26.52" arrivalSpeed="11.58" duration="62.00" routeLength="597.53" waitingTime="0.00" waitingCount="0" stopTime="0.00" timeLoss="14.78" rerouteNo="1" devices="tripinfo_motorcycle73 routing_motorcycle73" vType="motorcycle_motorcycle" speedFactor="0.98" vaporized=""/>
    <tripinfo id="motorcycle60" depart="80.00" departLane="-331050303_0" departPos="2.30" departSpeed="0.00" departDelay="4.43" arrival="155.00" arrivalLane="464465177#0_0" arrivalPos="157.70" arrivalSpeed="25.70" duration="75.00" routeLength="760.23" waitingTime="14.00" waitingCount="1" stopTime="0.00" timeLoss="30.07" rerouteNo="1" devices="tripinfo_motorcycle60 routing_motorcycle60" vType="motorcycle_motorcycle" speedFactor="0.94" vaporized=""/>