<?xml version="1.0" encoding="UTF-8"?>

<!-- generated on 2025-11-17 17:20:15 by Eclipse SUMO sumo Version 1.24.0
<sumoConfiguration xmlns:xsi="http://www.w3.org/2001/XMLSchema-instance" xsi:noNamespaceSchemaLocation="http://sumo.dlr.de/xsd/sumoConfiguration.xsd">

    <input>
        <net-file value="C:\Users\mjeni\OneDrive\Desktop\AFML Project\sumo-traffic-rl-project\SUMO_Trinity_Traffic_sim\osm.net.xml.gz"/>
        <route-files value="C:\Users\mjeni\OneDrive\Desktop\AFML Project\sumo-traffic-rl-project\SUMO_Trinity_Traffic_sim\mg_road.rou.xml,C:\Users\mjeni\OneDrive\Desktop\AFML Project\sumo-traffic-rl-project\SUMO_Trinity_Traffic_sim\ background.rou.xml"/>
        <additional-files value="C:\Users\mjeni\OneDrive\Desktop\AFML Project\sumo-traffic-rl-project\SUMO_Trinity_Traffic_sim\osm.poly.xml.gz"/>
    </input>

    <output>
        <tripinfo-output value="C:\Users\mjeni\OneDrive\Desktop\AFML Project\sumo-traffic-rl-project\SUMO_Trinity_Traffic_sim\tripinfo.xml"/>
    </output>

    <time>
        <begin value="28800"/>
        <step-length value="1.0"/>
    </time>

    <processing>
        <ignore-route-errors value="true"/>
        <time-to-teleport value="-1"/>
        <tls.actuated.jam-threshold value="30"/>
    </processing>

    <routing>
        <device.rerouting.adaptation-steps value="18"/>
        <device.rerouting.adaptation-interval value="10"/>
    </routing>

    <report>
        <verbose value="true"/>
        <no-warnings value="true"/>
        <duration-log.statistics value="true"/>
        <no-step-log value="true"/>
    </report>

    <traci_server>
        <remote-port value="63550"/>
    </traci_server>

    <random_number>
        <seed value="5"/>
    </random_number>

    <gui_only>
        <gui-settings-file value="C:\Users\mjeni\OneDrive\Desktop\AFML Project\sumo-traffic-rl-project\SUMO_Trinity_Traffic_sim\osm.view.xml"/>
        <quit-on-end value="true"/>
    </gui_only>

</sumoConfiguration>
-->

<tripinfos xmlns:xsi="http://www.w3.org/2001/XMLSchema-instance" xsi:noNamespaceSchemaLocation="http://sumo.dlr.de/xsd/tripinfo_file.xsd">
    <tripinfo id="from_south_right_turn_morning_peak.0" depart="28804.00" departLane="638541493#1_0" departPos="5.10" departSpeed="0.00" departDelay="4.00" arrival="28821.00" arrivalLane="638541497#1_1" arrivalPos="50.87" arrivalSpeed="18.87" duration="17.00" routeLength="159.24" waitingTime="0.00" waitingCount="0" stopTime="0.00" timeLoss="4.21" rerouteNo="1" devices="tripinfo_from_south_right_turn_morning_peak.0 routing_from_south_right_turn_morning_peak.0" vType="car" speedFactor="0.98" vaporized=""/>
    <tripinfo id="from_south_right_turn_morning_peak.1" depart="28809.00" departLane="638541493#1_0" departPos="2.30" departSpeed="0.00" departDelay="1.24" arrival="28827.00" arrivalLane="638541497#1_1" arrivalPos="50.87" arrivalSpeed="25.63" duration="18.00" routeLength="162.04" waitingTime="0.00" waitingCount="0" stopTime="0.00" timeLoss="3.97" rerouteNo="1" devices="tripinfo_from_south_right_turn_morning_peak.1 routing_from_south_right_turn_morning_peak.1" vType="motorcycle" speedFactor="0.96" vaporized=""/>
    <tripinfo id="from_south_straight_morning_peak.0" depart="28800.00" departLane="638541493#1_0" departPos="2.30" departSpeed="0.00" departDelay="0.00" arrival="28828.00" arrivalLane="328349209#9_0" arrivalPos="20.69" arrivalSpeed="24.32" duration="28.00" routeLength="345.44" waitingTime="0.00" waitingCount="0" stopTime="0.00" timeLoss="7.07" rerouteNo="1" devices="tripinfo_from_south_straight_morning_peak.0 routing_from_south_straight_morning_peak.0" vType="motorcycle" speedFactor="0.93" vaporized=""/>
    <tripinfo id="from_east_right_turn_morning_peak.0" depart="28803.00" departLane="1354145734#1_0" departPos="2.30" departSpeed="0.00" departDelay="3.00" arrival="28829.00" arrivalLane="328349209#9_1" arrivalPos="20.69" arrivalSpeed="24.29" duration="26.00" routeLength="366.20" waitingTime="0.00" waitingCount="0" stopTime="0.00" timeLoss="10.22" rerouteNo="1" devices="tripinfo_from_east_right_turn_morning_peak.0 routing_from_east_right_turn_morning_peak.0" vType="motorcycle" speedFactor="0.93" vaporized=""/>
    <tripinfo id="0" depart="28800.00" departLane="169709329#5_0" departPos="5.10" departSpeed="0.00" departDelay="0.00" arrival="28832.00" arrivalLane="-1103062099#1_0" arrivalPos="7.64" arrivalSpeed="11.51" duration="32.00" routeLength="124.30" waitingTime="0.00" waitingCount="0" stopTime="0.00" timeLoss="8.89" rerouteNo="1" devices="tripinfo_0 routing_0" vType="DEFAULT_VEHTYPE" speedFactor="1.16" vaporized=""/>
    <tripinfo id="from_south_right_turn_morning_peak.2" depart="28818.00" departLane="638541493#1_0" departPos="5.10" departSpeed="0.00" departDelay="2.48" arrival="28834.00" arrivalLane="638541497#1_1" arrivalPos="50.87" arrivalSpeed="22.17" duration="16.00" routeLength="159.24" waitingTime="0.00" waitingCount="0" stopTime="0.00" timeLoss="4.86" rerouteNo="1" devices="tripinfo_from_south_right_turn_morning_peak.2 routing_from_south_right_turn_morning_peak.2" vType="car" speedFactor="1.18" vaporized=""/>
    <tripinfo id="from_south_right_turn_morning_peak.3" depart="28826.00" departLane="638541493#1_0" departPos="2.30" departSpeed="0.00" departDelay="2.73" arrival="28843.00" arrivalLane="638541497#1_1" arrivalPos="50.87" arrivalSpeed="28.07" duration="17.00" routeLength="162.04" waitingTime="0.00" waitingCount="0" stopTime="0.00" timeLoss="4.12" rerouteNo="1" devices="tripinfo_from_south_right_turn_morning_peak.3 routing_from_south_right_turn_morning_peak.3" vType="motorcycle" speedFactor="1.04" vaporized=""/>
    <tripinfo id="3" depart="28811.00" departLane="491106117#3_0" departPos="5.10" departSpeed="0.00" departDelay="0.20" arrival="28849.00" arrivalLane="-132907566#1_0" arrivalPos="45.08" arrivalSpeed="13.52" duration="38.00" routeLength="342.86" waitingTime="0.00" waitingCount="0" stopTime="0.00" timeLoss="13.26" rerouteNo="1" devices="tripinfo_3 routing_3" vType="DEFAULT_VEHTYPE" speedFactor="1.11" vaporized=""/>
    <tripinfo id="from_east_right_turn_morning_peak.1" depart="28821.00" departLane="1354145734#1_0" departPos="12.10" departSpeed="0.00" departDelay="14.63" arrival="28858.00" arrivalLane="328349209#9_1" arrivalPos="20.69" arrivalSpeed="19.51" duration="37.00" routeLength="356.40" waitingTime="0.00" waitingCount="0" stopTime="0.00" timeLoss="23.59" rerouteNo="1" devices="tripinfo_from_east_right_turn_morning_peak.1 routing_from_east_right_turn_morning_peak.1" vType="bus" speedFactor="1.00" vaporized=""/>
    <tripinfo id="from_south_left_turn_morning_peak.0" depart="28801.00" departLane="638541493#1_0" departPos="5.10" departSpeed="0.00" departDelay="1.00" arrival="28861.00" arrivalLane="638541495#2_0" arrivalPos="30.24" arrivalSpeed="8.12" duration="60.00" routeLength="501.00" waitingTime="0.00" waitingCount="0" stopTime="0.00" timeLoss="8.57" rerouteNo="1" devices="tripinfo_from_south_left_turn_morning_peak.0 routing_from_south_left_turn_morning_peak.0" vType="auto" speedFactor="1.11" vaporized=""/>
    <tripinfo id="from_south_right_turn_morning_peak.4" depart="28834.00" departLane="638541493#1_0" departPos="2.30" departSpeed="0.00" departDelay="2.97" arrival="28861.00" arrivalLane="638541497#1_1" arrivalPos="50.87" arrivalSpeed="23.96" duration="27.00" routeLength="162.04" waitingTime="2.00" waitingCount="1" stopTime="0.00" timeLoss="12.13" rerouteNo="1" devices="tripinfo_from_south_right_turn_morning_peak.4 routing_from_south_right_turn_morning_peak.4" vType="motorcycle" speedFactor="0.90" vaporized=""/>
    <tripinfo id="from_east_left_turn_morning_peak.0" depart="28802.00" departLane="1354145734#1_0" departPos="2.30" departSpeed="0.00" departDelay="2.00" arrival="28864.00" arrivalLane="1148421491#1_0" arrivalPos="44.65" arrivalSpeed="7.01" duration="62.00" routeLength="290.78" waitingTime="28.00" waitingCount="1" stopTime="0.00" timeLoss="45.17" rerouteNo="1" devices="tripinfo_from_east_left_turn_morning_peak.0 routing_from_east_left_turn_morning_peak.0" vType="motorcycle" speedFactor="1.03" vaporized=""/>
    <tripinfo id="from_south_right_turn_morning_peak.5" depart="28841.00" departLane="638541493#1_0" departPos="5.10" departSpeed="0.00" departDelay="2.21" arrival="28869.00" arrivalLane="638541497#1_1" arrivalPos="50.87" arrivalSpeed="18.63" duration="28.00" routeLength="159.24" waitingTime="0.00" waitingCount="0" stopTime="0.00" timeLoss="14.59" rerouteNo="1" devices="tripinfo_from_south_right_turn_morning_peak.5 routing_from_south_right_turn_morning_peak.5" vType="auto" speedFactor="0.96" vaporized=""/>
    <tripinfo id="from_south_right_turn_morning_peak.6" depart="28849.00" departLane="638541493#1_0" departPos="5.10" departSpeed="0.00" departDelay="2.45" arrival="28870.00" arrivalLane="638541497#1_1" arrivalPos="50.87" arrivalSpeed="19.34" duration="21.00" routeLength="159.24" waitingTime="0.00" waitingCount="0" stopTime="0.00" timeLoss="9.66" rerouteNo="1" devices="tripinfo_from_south_right_turn_morning_peak.6 routing_from_south_right_turn_morning_peak.6" vType="auto" speedFactor="1.09" vaporized=""/>
    <tripinfo id="from_east_right_turn_morning_peak.2" depart="28836.00" departLane="1354145734#1_0" departPos="2.30" departSpeed="0.00" departDelay="23.26" arrival="28873.00" arrivalLane="328349209#9_1" arrivalPos="20.69" arrivalSpeed="27.09" duration="37.00" routeLength="366.20" waitingTime="5.00" waitingCount="1" stopTime="0.00" timeLoss="22.09" rerouteNo="1" devices="tripinfo_from_east_right_turn_morning_peak.2 routing_from_east_right_turn_morning_peak.2" vType="motorcycle" speedFactor="1.01" vaporized=""/>
    <tripinfo id="from_west_straight_morning_peak.0" depart="28800.00" departLane="263812623#1_0" departPos="2.30" departSpeed="0.00" departDelay="0.00" arrival="28875.00" arrivalLane="638541497#16_0" arrivalPos="109.58" arrivalSpeed="25.32" duration="75.00" routeLength="1048.79" waitingTime="12.00" waitingCount="1" stopTime="0.00" timeLoss="21.51" rerouteNo="1" devices="tripinfo_from_west_straight_morning_peak.0 routing_from_west_straight_morning_peak.0" vType="motorcycle" speedFactor="0.99" vaporized=""/>
    <tripinfo id="7" depart="28826.00" departLane="169711262#3_0" departPos="5.10" departSpeed="0.00" departDelay="0.80" arrival="28875.00" arrivalLane="132907562#1_0" arrivalPos="14.25" arrivalSpeed="13.26" duration="49.00" routeLength="573.45" waitingTime="0.00" waitingCount="0" stopTime="0.00" timeLoss="12.32" rerouteNo="1" devices="tripinfo_7 routing_7" vType="DEFAULT_VEHTYPE" speedFactor="1.20" vaporized=""/>
    <tripinfo id="from_south_left_turn_morning_peak.1" depart="28808.00" departLane="638541493#1_0" departPos="2.30" departSpeed="0.00" departDelay="0.24" arrival="28875.00" arrivalLane="638541495#2_0" arrivalPos="30.24" arrivalSpeed="6.66" duration="67.00" routeLength="503.80" waitingTime="0.00" waitingCount="0" stopTime="0.00" timeLoss="13.41" rerouteNo="1" devices="tripinfo_from_south_left_turn_morning_peak.1 routing_from_south_left_turn_morning_peak.1" vType="motorcycle" speedFactor="1.07" vaporized=""/>
    <tripinfo id="from_west_straight_morning_peak.1" depart="28805.00" departLane="263812623#1_0" departPos="5.10" departSpeed="0.00" departDelay="3.81" arrival="28878.00" arrivalLane="638541497#16_1" arrivalPos="109.58" arrivalSpeed="25.81" duration="73.00" routeLength="1045.99" waitingTime="4.00" waitingCount="1" stopTime="0.00" timeLoss="19.17" rerouteNo="1" devices="tripinfo_from_west_straight_morning_peak.1 routing_from_west_straight_morning_peak.1" vType="car" speedFactor="0.97" vaporized=""/>
    <tripinfo id="from_south_right_turn_morning_peak.7" depart="28858.00" departLane="638541493#1_0" departPos="12.10" departSpeed="0.00" departDelay="3.69" arrival="28878.00" arrivalLane="638541497#1_1" arrivalPos="50.87" arrivalSpeed="15.40" duration="20.00" routeLength="152.24" waitingTime="0.00" waitingCount="0" stopTime="0.00" timeLoss="8.03" rerouteNo="1" devices="tripinfo_from_south_right_turn_morning_peak.7 routing_from_south_right_turn_morning_peak.7" vType="bus" speedFactor="1.00" vaporized=""/>
    <tripinfo id="10" depart="28836.00" departLane="36257667#9_0" departPos="5.10" departSpeed="0.00" departDelay="0.00" arrival="28879.00" arrivalLane="213087089_0" arrivalPos="91.98" arrivalSpeed="13.28" duration="43.00" routeLength="437.32" waitingTime="0.00" waitingCount="0" stopTime="0.00" timeLoss="10.20" rerouteNo="1" devices="tripinfo_10 routing_10" vType="DEFAULT_VEHTYPE" speedFactor="1.04" vaporized=""/>
    <tripinfo id="from_south_straight_morning_peak.1" depart="28835.00" departLane="638541493#1_0" departPos="7.20" departSpeed="0.00" departDelay="0.05" arrival="28882.00" arrivalLane="328349209#9_0" arrivalPos="20.69" arrivalSpeed="20.54" duration="47.00" routeLength="340.54" waitingTime="2.00" waitingCount="1" stopTime="0.00" timeLoss="28.18" rerouteNo="1" devices="tripinfo_from_south_straight_morning_peak.1 routing_from_south_straight_morning_peak.1" vType="truck" speedFactor="0.99" vaporized=""/>
    <tripinfo id="from_south_right_turn_morning_peak.8" depart="28866.00" departLane="638541493#1_0" departPos="5.10" departSpeed="0.00" departDelay="3.94" arrival="28884.00" arrivalLane="638541497#1_1" arrivalPos="50.87" arrivalSpeed="18.82" duration="18.00" routeLength="159.24" waitingTime="0.00" waitingCount="0" stopTime="0.00" timeLoss="4.56" rerouteNo="1" devices="tripinfo_from_south_right_turn_morning_peak.8 routing_from_south_right_turn_morning_peak.8" vType="car" speedFactor="0.92" vaporized=""/>
    <tripinfo id="from_south_left_turn_morning_peak.2" depart="28816.00" departLane="638541493#1_0" departPos="2.30" departSpeed="0.00" departDelay="0.48" arrival="28889.00" arrivalLane="638541495#2_0" arrivalPos="30.24" arrivalSpeed="6.98" duration="73.00" routeLength="503.80" waitingTime="0.00" waitingCount="0" stopTime="0.00" timeLoss="14.75" rerouteNo="1" devices="tripinfo_from_south_left_turn_morning_peak.2 routing_from_south_left_turn_morning_peak.2" vType="motorcycle" speedFactor="0.98" vaporized=""/>
    <tripinfo id="from_south_right_turn_morning_peak.9" depart="28873.00" departLane="638541493#1_0" departPos="2.30" departSpeed="0.00" departDelay="3.18" arrival="28891.00" arrivalLane="638541497#1_1" arrivalPos="50.87" arrivalSpeed="25.12" duration="18.00" routeLength="162.04" waitingTime="0.00" waitingCount="0" stopTime="0.00" timeLoss="4.88" rerouteNo="1" devices="tripinfo_from_south_right_turn_morning_peak.9 routing_from_south_right_turn_morning_peak.9" vType="motorcycle" speedFactor="1.01" vaporized=""/>
    <tripinfo id="11" depart="28840.00" departLane="-484510040#17_0" departPos="5.10" departSpeed="0.00" departDelay="0.40" arrival="28892.00" arrivalLane="-169711276#0_0" arrivalPos="9.15" arrivalSpeed="11.90" duration="52.00" routeLength="610.46" waitingTime="0.00" waitingCount="0" stopTime="0.00" timeLoss="20.84" rerouteNo="1" devices="tripinfo_11 routing_11" vType="DEFAULT_VEHTYPE" speedFactor="1.25" vaporized=""/>
    <tripinfo id="2" depart="28808.00" departLane="26284129#7_0" departPos="5.10" departSpeed="0.00" departDelay="0.80" arrival="28894.00" arrivalLane="213042766#5_0" arrivalPos="50.03" arrivalSpeed="13.19" duration="86.00" routeLength="1012.11" waitingTime="2.00" waitingCount="1" stopTime="0.00" timeLoss="22.06" rerouteNo="1" devices="tripinfo_2 routing_2" vType="DEFAULT_VEHTYPE" speedFactor="0.99" vaporized=""/>
    <tripinfo id="from_south_straight_morning_peak.2" depart="28870.00" departLane="638541493#1_0" departPos="2.30" departSpeed="0.00" departDelay="0.10" arrival="28894.00" arrivalLane="328349209#9_0" arrivalPos="20.69" arrivalSpeed="29.84" duration="24.00" routeLength="345.44" waitingTime="0.00" waitingCount="0" stopTime="0.00" timeLoss="6.57" rerouteNo="1" devices="tripinfo_from_south_straight_morning_peak.2 routing_from_south_straight_morning_peak.2" vType="motorcycle" speedFactor="1.09" vaporized=""/>
    <tripinfo id="from_south_left_turn_morning_peak.4" depart="28832.00" departLane="638541493#1_0" departPos="5.10" departSpeed="0.00" departDelay="0.97" arrival="28896.00" arrivalLane="638541495#2_0" arrivalPos="30.24" arrivalSpeed="7.38" duration="64.00" routeLength="501.00" waitingTime="0.00" waitingCount="0" stopTime="0.00" timeLoss="8.65" rerouteNo="1" devices="tripinfo_from_south_left_turn_morning_peak.4 routing_from_south_left_turn_morning_peak.4" vType="auto" speedFactor="1.03" vaporized=""/>
    <tripinfo id="from_south_left_turn_morning_peak.3" depart="28824.00" departLane="638541493#1_0" departPos="2.30" departSpeed="0.00" departDelay="0.73" arrival="28900.00" arrivalLane="638541495#2_0" arrivalPos="30.24" arrivalSpeed="6.74" duration="76.00" routeLength="503.80" waitingTime="0.00" waitingCount="0" stopTime="0.00" timeLoss="18.22" rerouteNo="1" devices="tripinfo_from_south_left_turn_morning_peak.3 routing_from_south_left_turn_morning_peak.3" vType="motorcycle" speedFactor="0.98" vaporized=""/>
    <tripinfo id="from_east_straight_morning_peak.1" depart="28804.00" departLane="1354145734#1_0" departPos="2.30" departSpeed="0.00" departDelay="2.64" arrival="28904.00" arrivalLane="638541495#1_0" arrivalPos="26.02" arrivalSpeed="7.10" duration="100.00" routeLength="629.94" waitingTime="23.00" waitingCount="2" stopTime="0.00" timeLoss="44.85" rerouteNo="1" devices="tripinfo_from_east_straight_morning_peak.1 routing_from_east_straight_morning_peak.1" vType="motorcycle" speedFactor="1.10" vaporized=""/>
    <tripinfo id="from_west_right_turn_morning_peak.0" depart="28803.00" departLane="263812623#1_0" departPos="2.30" departSpeed="0.00" departDelay="3.00" arrival="28907.00" arrivalLane="1148421491#1_0" arrivalPos="44.65" arrivalSpeed="6.42" duration="104.00" routeLength="501.63" waitingTime="45.00" waitingCount="3" stopTime="0.00" timeLoss="68.37" rerouteNo="1" devices="tripinfo_from_west_right_turn_morning_peak.0 routing_from_west_right_turn_morning_peak.0" vType="motorcycle" speedFactor="1.08" vaporized=""/>
    <tripinfo id="from_east_straight_morning_peak.0" depart="28800.00" departLane="1354145734#1_0" departPos="5.10" departSpeed="0.00" departDelay="0.00" arrival="28907.00" arrivalLane="638541495#1_1" arrivalPos="26.02" arrivalSpeed="7.18" duration="107.00" routeLength="627.14" waitingTime="29.00" waitingCount="1" stopTime="0.00" timeLoss="45.84" rerouteNo="1" devices="tripinfo_from_east_straight_morning_peak.0 routing_from_east_straight_morning_peak.0" vType="auto" speedFactor="0.98" vaporized=""/>
    <tripinfo id="from_south_right_turn_morning_peak.10" depart="28880.00" departLane="638541493#1_0" departPos="2.30" departSpeed="0.00" departDelay="2.42" arrival="28909.00" arrivalLane="638541497#1_1" arrivalPos="50.87" arrivalSpeed="23.49" duration="29.00" routeLength="162.04" waitingTime="6.00" waitingCount="1" stopTime="0.00" timeLoss="14.17" rerouteNo="1" devices="tripinfo_from_south_right_turn_morning_peak.10 routing_from_south_right_turn_morning_peak.10" vType="motorcycle" speedFactor="0.91" vaporized=""/>
    <tripinfo id="1" depart="28804.00" departLane="-26284183#2_0" departPos="5.10" departSpeed="0.00" departDelay="0.40" arrival="28910.00" arrivalLane="-26284129#7_0" arrivalPos="40.68" arrivalSpeed="19.99" duration="106.00" routeLength="563.24" waitingTime="54.00" waitingCount="1" stopTime="0.00" timeLoss="76.79" rerouteNo="1" devices="tripinfo_1 routing_1" vType="DEFAULT_VEHTYPE" speedFactor="1.12" vaporized=""/>
    <tripinfo id="from_south_right_turn_morning_peak.11" depart="28888.00" departLane="638541493#1_0" departPos="2.30" departSpeed="0.00" departDelay="2.66" arrival="28910.00" arrivalLane="638541497#1_1" arrivalPos="50.87" arrivalSpeed="22.86" duration="22.00" routeLength="162.04" waitingTime="1.00" waitingCount="1" stopTime="0.00" timeLoss="9.37" rerouteNo="1" devices="tripinfo_from_south_right_turn_morning_peak.11 routing_from_south_right_turn_morning_peak.11" vType="motorcycle" speedFactor="1.01" vaporized=""/>
    <tripinfo id="30" depart="28908.00" departLane="-37110889#1_0" departPos="5.10" departSpeed="0.00" departDelay="0.00" arrival="28911.00" arrivalLane="-37110889#1_0" arrivalPos="11.84" arrivalSpeed="4.84" duration="3.00" routeLength="6.74" waitingTime="0.00" waitingCount="0" stopTime="0.00" timeLoss="2.57" rerouteNo="1" devices="tripinfo_30 routing_30" vType="DEFAULT_VEHTYPE" speedFactor="0.94" vaporized=""/>
    <tripinfo id="from_south_right_turn_morning_peak.12" depart="28897.00" departLane="638541493#1_0" departPos="5.10" departSpeed="0.00" departDelay="3.90" arrival="28914.00" arrivalLane="638541497#1_1" arrivalPos="50.87" arrivalSpeed="17.40" duration="17.00" routeLength="159.24" waitingTime="0.00" waitingCount="0" stopTime="0.00" timeLoss="4.46" rerouteNo="1" devices="tripinfo_from_south_right_turn_morning_peak.12 routing_from_south_right_turn_morning_peak.12" vType="car" speedFactor="1.03" vaporized=""/>
    <tripinfo id="from_south_left_turn_morning_peak.5" depart="28839.00" departLane="638541493#1_0" departPos="2.30" departSpeed="0.00" departDelay="0.21" arrival="28917.00" arrivalLane="638541495#2_0" arrivalPos="30.24" arrivalSpeed="6.30" duration="78.00" routeLength="503.80" waitingTime="0.00" waitingCount="0" stopTime="0.00" timeLoss="17.66" rerouteNo="1" devices="tripinfo_from_south_left_turn_morning_peak.5 routing_from_south_left_turn_morning_peak.5" vType="motorcycle" speedFactor="0.95" vaporized=""/>
    <tripinfo id="12" depart="28844.00" departLane="638541497#8_0" departPos="5.10" departSpeed="0.00" departDelay="0.80" arrival="28919.00" arrivalLane="-553250634#1_0" arrivalPos="19.11" arrivalSpeed="8.43" duration="75.00" routeLength="630.48" waitingTime="26.00" waitingCount="1" stopTime="0.00" timeLoss="47.98" rerouteNo="1" devices="tripinfo_12 routing_12" vType="DEFAULT_VEHTYPE" speedFactor="1.01" vaporized=""/>
    <tripinfo id="from_south_right_turn_morning_peak.13" depart="28904.00" departLane="638541493#1_0" departPos="2.30" departSpeed="0.00" departDelay="3.15" arrival="28922.00" arrivalLane="638541497#1_1" arrivalPos="50.87" arrivalSpeed="22.69" duration="18.00" routeLength="162.04" waitingTime="0.00" waitingCount="0" stopTime="0.00" timeLoss="4.92" rerouteNo="1" devices="tripinfo_from_south_right_turn_morning_peak.13 routing_from_south_right_turn_morning_peak.13" vType="motorcycle" speedFactor="1.03" vaporized=""/>
    <tripinfo id="from_south_left_turn_morning_peak.7" depart="28855.00" departLane="638541493#1_0" departPos="2.30" departSpeed="0.00" departDelay="0.69" arrival="28924.00" arrivalLane="638541495#2_0" arrivalPos="30.24" arrivalSpeed="6.23" duration="69.00" routeLength="503.80" waitingTime="0.00" waitingCount="0" stopTime="0.00" timeLoss="14.31" rerouteNo="1" devices="tripinfo_from_south_left_turn_morning_peak.7 routing_from_south_left_turn_morning_peak.7" vType="motorcycle" speedFactor="1.03" vaporized=""/>
    <tripinfo id="from_south_left_turn_morning_peak.8" depart="28863.00" departLane="638541493#1_0" departPos="5.10" departSpeed="0.00" departDelay="0.94" arrival="28924.00" arrivalLane="638541495#2_1" arrivalPos="30.24" arrivalSpeed="8.69" duration="61.00" routeLength="501.00" waitingTime="0.00" waitingCount="0" stopTime="0.00" timeLoss="7.97" rerouteNo="1" devices="tripinfo_from_south_left_turn_morning_peak.8 routing_from_south_left_turn_morning_peak.8" vType="auto" speedFactor="1.07" vaporized=""/>
    <tripinfo id="9" depart="28833.00" departLane="36853688#1_0" departPos="5.10" departSpeed="0.00" departDelay="0.60" arrival="28925.00" arrivalLane="-1093123616#1_0" arrivalPos="29.39" arrivalSpeed="14.22" duration="92.00" routeLength="947.32" waitingTime="0.00" waitingCount="0" stopTime="0.00" timeLoss="19.74" rerouteNo="1" devices="tripinfo_9 routing_9" vType="DEFAULT_VEHTYPE" speedFactor="1.06" vaporized=""/>
    <tripinfo id="from_south_left_turn_morning_peak.6" depart="28847.00" departLane="638541493#1_0" departPos="2.30" departSpeed="0.00" departDelay="0.45" arrival="28931.00" arrivalLane="638541495#2_0" arrivalPos="30.24" arrivalSpeed="7.15" duration="84.00" routeLength="503.80" waitingTime="0.00" waitingCount="0" stopTime="0.00" timeLoss="19.72" rerouteNo="1" devices="tripinfo_from_south_left_turn_morning_peak.6 routing_from_south_left_turn_morning_peak.6" vType="motorcycle" speedFactor="0.89" vaporized=""/>
    <tripinfo id="from_south_right_turn_morning_peak.14" depart="28911.00" departLane="638541493#1_0" departPos="2.30" departSpeed="0.00" departDelay="2.39" arrival="28933.00" arrivalLane="638541497#1_1" arrivalPos="50.87" arrivalSpeed="20.96" duration="22.00" routeLength="162.04" waitingTime="0.00" waitingCount="0" stopTime="0.00" timeLoss="5.78" rerouteNo="1" devices="tripinfo_from_south_right_turn_morning_peak.14 routing_from_south_right_turn_morning_peak.14" vType="motorcycle" speedFactor="0.80" vaporized=""/>
    <tripinfo id="from_south_right_turn_morning_peak.15" depart="28919.00" departLane="638541493#1_0" departPos="2.30" departSpeed="0.00" departDelay="2.63" arrival="28936.00" arrivalLane="638541497#1_1" arrivalPos="50.87" arrivalSpeed="27.01" duration="17.00" routeLength="162.04" waitingTime="0.00" waitingCount="0" stopTime="0.00" timeLoss="4.23" rerouteNo="1" devices="tripinfo_from_south_right_turn_morning_peak.15 routing_from_south_right_turn_morning_peak.15" vType="motorcycle" speedFactor="1.03" vaporized=""/>
    <tripinfo id="26" depart="28894.00" departLane="796846477_0" departPos="1.37" departSpeed="0.00" departDelay="0.40" arrival="28938.00" arrivalLane="169711262#7_0" arrivalPos="25.51" arrivalSpeed="14.47" duration="44.00" routeLength="501.35" waitingTime="0.00" waitingCount="0" stopTime="0.00" timeLoss="14.15" rerouteNo="1" devices="tripinfo_26 routing_26" vType="DEFAULT_VEHTYPE" speedFactor="1.06" vaporized=""/>
    <tripinfo id="from_south_straight_morning_peak.3" depart="28905.00" departLane="638541493#1_0" departPos="5.10" departSpeed="0.00" departDelay="0.15" arrival="28938.00" arrivalLane="328349209#9_0" arrivalPos="20.69" arrivalSpeed="24.83" duration="33.00" routeLength="342.64" waitingTime="0.00" waitingCount="0" stopTime="0.00" timeLoss="11.95" rerouteNo="1" devices="tripinfo_from_south_straight_morning_peak.3 routing_from_south_straight_morning_peak.3" vType="auto" speedFactor="0.91" vaporized=""/>
    <tripinfo id="16" depart="28858.00" departLane="-49687940#3_0" departPos="5.10" departSpeed="0.00" departDelay="0.40" arrival="28942.00" arrivalLane="132907563#3_0" arrivalPos="77.49" arrivalSpeed="14.53" duration="84.00" routeLength="648.84" waitingTime="5.00" waitingCount="1" stopTime="0.00" timeLoss="28.30" rerouteNo="1" devices="tripinfo_16 routing_16" vType="DEFAULT_VEHTYPE" speedFactor="1.05" vaporized=""/>
    <tripinfo id="from_south_left_turn_morning_peak.10" depart="28878.00" departLane="638541493#1_0" departPos="2.30" departSpeed="0.00" departDelay="0.42" arrival="28942.00" arrivalLane="638541495#2_0" arrivalPos="30.24" arrivalSpeed="7.79" duration="64.00" routeLength="503.80" waitingTime="0.00" waitingCount="0" stopTime="0.00" timeLoss="11.98" rerouteNo="1" devices="tripinfo_from_south_left_turn_morning_peak.10 routing_from_south_left_turn_morning_peak.10" vType="motorcycle" speedFactor="1.11" vaporized=""/>
    <tripinfo id="from_south_right_turn_morning_peak.16" depart="28927.00" departLane="638541493#1_0" departPos="2.30" departSpeed="0.00" departDelay="2.87" arrival="28945.00" arrivalLane="638541497#1_1" arrivalPos="50.87" arrivalSpeed="23.82" duration="18.00" routeLength="162.04" waitingTime="1.00" waitingCount="1" stopTime="0.00" timeLoss="4.75" rerouteNo="1" devices="tripinfo_from_south_right_turn_morning_peak.16 routing_from_south_right_turn_morning_peak.16" vType="motorcycle" speedFactor="0.98" vaporized=""/>
    <tripinfo id="from_south_left_turn_morning_peak.9" depart="28871.00" departLane="638541493#1_0" departPos="5.10" departSpeed="0.00" departDelay="1.18" arrival="28947.00" arrivalLane="638541495#2_0" arrivalPos="30.24" arrivalSpeed="7.04" duration="76.00" routeLength="501.00" waitingTime="0.00" waitingCount="0" stopTime="0.00" timeLoss="9.60" rerouteNo="1" devices="tripinfo_from_south_left_turn_morning_peak.9 routing_from_south_left_turn_morning_peak.9" vType="car" speedFactor="0.86" vaporized=""/>
    <tripinfo id="24" depart="28887.00" departLane="169711262#1_0" departPos="0.20" departSpeed="0.00" departDelay="0.60" arrival="28950.00" arrivalLane="169709317#2_0" arrivalPos="1.34" arrivalSpeed="2.88" duration="63.00" routeLength="382.49" waitingTime="1.00" waitingCount="1" stopTime="0.00" timeLoss="28.16" rerouteNo="1" devices="tripinfo_24 routing_24" vType="DEFAULT_VEHTYPE" speedFactor="0.96" vaporized=""/>
    <tripinfo id="13" depart="28847.00" departLane="-1227950011_0" departPos="5.10" departSpeed="0.00" departDelay="0.20" arrival="28952.00" arrivalLane="-147545754#1_0" arrivalPos="8.11" arrivalSpeed="11.72" duration="105.00" routeLength="1130.90" waitingTime="0.00" waitingCount="0" stopTime="0.00" timeLoss="19.98" rerouteNo="1" devices="tripinfo_13 routing_13" vType="DEFAULT_VEHTYPE" speedFactor="0.93" vaporized=""/>
    <tripinfo id="from_south_left_turn_morning_peak.11" depart="28886.00" departLane="638541493#1_0" departPos="5.10" departSpeed="0.00" departDelay="0.66" arrival="28954.00" arrivalLane="638541495#2_0" arrivalPos="30.24" arrivalSpeed="7.29" duration="68.00" routeLength="501.00" waitingTime="0.00" waitingCount="0" stopTime="0.00" timeLoss="10.00" rerouteNo="1" devices="tripinfo_from_south_left_turn_morning_peak.11 routing_from_south_left_turn_morning_peak.11" vType="auto" speedFactor="0.97" vaporized=""/>