<?xml version="1.0" encoding="UTF-8"?>

<!-- generated on 2025-11-17 11:38:19 by Eclipse SUMO sumo Version 1.24.0
<sumoConfiguration xmlns:xsi="http://www.w3.org/2001/XMLSchema-instance" xsi:noNamespaceSchemaLocation="http://sumo.dlr.de/xsd/sumoConfiguration.xsd">

    <input>
        <net-file value="C:\Users\mjeni\OneDrive\Desktop\AFML Project\sumo-traffic-rl-project\SUMO_Trinity_Traffic_sim\osm.net.xml.gz"/>
        <route-files value="C:\Users\mjeni\OneDrive\Desktop\AFML Project\sumo-traffic-rl-project\SUMO_Trinity_Traffic_sim\mg_road.rou.xml,C:\Users\mjeni\OneDrive\Desktop\AFML Project\sumo-traffic-rl-project\SUMO_Trinity_Traffic_sim\ background.rou.xml"/>
        <additional-files value="C:\Users\mjeni\OneDrive\Desktop\AFML Project\sumo-traffic-rl-project\SUMO_Trinity_Traffic_sim\osm.poly.xml.gz"/>
    </input>

    <output>
        <tripinfo-output value="C:\Users\mjeni\OneDrive\Desktop\AFML Project\sumo-traffic-rl-project\SUMO_Trinity_Traffic_sim\tripinfo.xml"/>
    </output>

    <processing>
        <ignore-route-errors value="true"/>
        <tls.actuated.jam-threshold value="30"/>
    </processing>

    <routing>
        <device.rerouting.adaptation-steps value="18"/>
        <device.rerouting.adaptation-interval value="10"/>
    </routing>

    <report>
        <verbose value="true"/>
        <no-warnings value="true"/>
        <duration-log.statistics value="true"/>
        <no-step-log value="true"/>
    </report>

    <traci_server>
        <remote-port value="61366"/>
    </traci_server>

    <random_number>
        <seed value="5"/>
    </random_number>

    <gui_only>
        <gui-settings-file value="C:\Users\mjeni\OneDrive\Desktop\AFML Project\sumo-traffic-rl-project\SUMO_Trinity_Traffic_sim\osm.view.xml"/>
        <quit-on-end value="true"/>
    </gui_only>

</sumoConfiguration>
-->

<tripinfos xmlns:xsi="http://www.w3.org/2001/XMLSchema-instance" xsi:noNamespaceSchemaLocation="http://sumo.dlr.de/xsd/tripinfo_file.xsd">
</tripinfos>
