<?xml version="1.0" encoding="UTF-8"?>

<!-- generated on 2025-11-18 11:23:37 by Eclipse SUMO sumo Version 1.24.0
<sumoConfiguration xmlns:xsi="http://www.w3.org/2001/XMLSchema-instance" xsi:noNamespaceSchemaLocation="http://sumo.dlr.de/xsd/sumoConfiguration.xsd">

    <input>
        <net-file value="SUMO_Trinity_Traffic_sim/osm.net.xml.gz"/>
        <route-files value="SUMO_Trinity_Traffic_sim/mg_road.rou.xml,SUMO_Trinity_Traffic_sim/ background.rou.xml"/>
        <additional-files value="SUMO_Trinity_Traffic_sim/osm.poly.xml.gz"/>
    </input>

    <output>
        <tripinfo-output value="SUMO_Trinity_Traffic_sim/tripinfo.xml"/>
    </output>

    <time>
        <begin value="28800.0"/>
        <step-length value="1.0"/>
    </time>

    <processing>
        <ignore-route-errors value="true"/>
        <tls.actuated.jam-threshold value="30"/>
    </processing>

    <routing>
        <device.rerouting.adaptation-steps value="18"/>
        <device.rerouting.adaptation-interval value="10"/>
    </routing>

    <report>
        <verbose value="true"/>
        <no-warnings value="true"/>
        <duration-log.statistics value="true"/>
        <no-step-log value="true"/>
    </report>

    <traci_server>
        <remote-port value="54995"/>
    </traci_server>

    <random_number>
        <seed value="10"/>
    </random_number>

    <gui_only>
        <gui-settings-file value="SUMO_Trinity_Traffic_sim/osm.view.xml"/>
        <quit-on-end value="true"/>
    </gui_only>

</sumoConfiguration>
-->

<tripinfos xmlns:xsi="http://www.w3.org/2001/XMLSchema-instance" xsi:noNamespaceSchemaLocation="http://sumo.dlr.de/xsd/tripinfo_file.xsd">
    <tripinfo id="from_east_left_turn_morning_peak.0" depart="28803.00" departLane="1354145734#1_0" departPos="5.10" departSpeed="0.00" departDelay="3.00" arrival="28829.00" arrivalLane="1148421491#1_0" arrivalPos="44.65" arrivalSpeed="7.92" duration="26.00" routeLength="287.98" waitingTime="0.00" waitingCount="0" stopTime="0.00" timeLoss="11.06" rerouteNo="1" devices="tripinfo_from_east_left_turn_morning_peak.0 routing_from_east_left_turn_morning_peak.0" vType="car" speedFactor="1.07" vaporized=""/>
    <tripinfo id="from_east_right_turn_morning_peak.0" depart="28806.00" departLane="1354145734#1_0" departPos="5.10" departSpeed="0.00" departDelay="6.00" arrival="28835.00" arrivalLane="328349209#9_1" arrivalPos="20.69" arrivalSpeed="28.68" duration="29.00" routeLength="363.40" waitingTime="0.00" waitingCount="0" stopTime="0.00" timeLoss="15.83" rerouteNo="1" devices="tripinfo_from_east_right_turn_morning_peak.0 routing_from_east_right_turn_morning_peak.0" vType="car" speedFactor="1.08" vaporized=""/>
    <tripinfo id="emergency_fire_truck_east_morning_peak.0" depart="28812.00" departLane="1354145734#1_0" departPos="9.10" departSpeed="0.00" departDelay="12.00" arrival="28840.00" arrivalLane="1148421491#1_0" arrivalPos="44.65" arrivalSpeed="7.14" duration="28.00" routeLength="283.98" waitingTime="0.00" waitingCount="0" stopTime="0.00" timeLoss="11.44" rerouteNo="1" devices="tripinfo_emergency_fire_truck_east_morning_peak.0 routing_emergency_fire_truck_east_morning_peak.0" vType="fire_truck" speedFactor="1.00" vaporized=""/>
    <tripinfo id="0" depart="28800.00" departLane="169709329#5_0" departPos="5.10" departSpeed="0.00" departDelay="0.00" arrival="28842.00" arrivalLane="-1103062099#1_0" arrivalPos="7.64" arrivalSpeed="12.02" duration="42.00" routeLength="124.30" waitingTime="0.00" waitingCount="0" stopTime="0.00" timeLoss="12.55" rerouteNo="1" devices="tripinfo_0 routing_0" vType="DEFAULT_VEHTYPE" speedFactor="0.91" vaporized=""/>
    <tripinfo id="from_west_left_turn_morning_peak.0" depart="28801.00" departLane="263812623#1_0" departPos="2.30" departSpeed="0.00" departDelay="1.00" arrival="28845.00" arrivalLane="328349209#9_0" arrivalPos="20.69" arrivalSpeed="28.79" duration="44.00" routeLength="677.53" waitingTime="0.00" waitingCount="0" stopTime="0.00" timeLoss="8.33" rerouteNo="1" devices="tripinfo_from_west_left_turn_morning_peak.0 routing_from_west_left_turn_morning_peak.0" vType="motorcycle" speedFactor="1.11" vaporized=""/>
    <tripinfo id="3" depart="28811.00" departLane="491106117#3_0" departPos="5.10" departSpeed="0.00" departDelay="0.20" arrival="28852.00" arrivalLane="-132907566#1_0" arrivalPos="45.08" arrivalSpeed="12.46" duration="41.00" routeLength="342.86" waitingTime="0.00" waitingCount="0" stopTime="0.00" timeLoss="11.85" rerouteNo="1" devices="tripinfo_3 routing_3" vType="DEFAULT_VEHTYPE" speedFactor="0.97" vaporized=""/>
    <tripinfo id="from_west_right_turn_morning_peak.0" depart="28802.00" departLane="263812623#1_0" departPos="5.10" departSpeed="0.00" departDelay="2.00" arrival="28858.00" arrivalLane="1148421491#1_0" arrivalPos="44.65" arrivalSpeed="6.21" duration="56.00" routeLength="498.83" waitingTime="1.00" waitingCount="1" stopTime="0.00" timeLoss="13.32" rerouteNo="1" devices="tripinfo_from_west_right_turn_morning_peak.0 routing_from_west_right_turn_morning_peak.0" vType="auto" speedFactor="0.89" vaporized=""/>
    <tripinfo id="from_south_right_turn_morning_peak.0" depart="28803.00" departLane="638541493#1_0" departPos="2.30" departSpeed="0.00" departDelay="3.00" arrival="28858.00" arrivalLane="638541497#1_1" arrivalPos="50.87" arrivalSpeed="26.75" duration="55.00" routeLength="162.04" waitingTime="32.00" waitingCount="1" stopTime="0.00" timeLoss="42.25" rerouteNo="1" devices="tripinfo_from_south_right_turn_morning_peak.0 routing_from_south_right_turn_morning_peak.0" vType="motorcycle" speedFactor="1.08" vaporized=""/>
    <tripinfo id="emergency_fire_truck_west_morning_peak.0" depart="28806.00" departLane="263812623#1_0" departPos="9.10" departSpeed="0.00" departDelay="6.00" arrival="28859.00" arrivalLane="328349209#9_0" arrivalPos="20.69" arrivalSpeed="27.09" duration="53.00" routeLength="670.73" waitingTime="0.00" waitingCount="0" stopTime="0.00" timeLoss="13.87" rerouteNo="1" devices="tripinfo_emergency_fire_truck_west_morning_peak.0 routing_emergency_fire_truck_west_morning_peak.0" vType="fire_truck" speedFactor="1.00" vaporized=""/>
    <tripinfo id="from_east_left_turn_morning_peak.1" depart="28828.00" departLane="1354145734#1_0" departPos="2.30" departSpeed="0.00" departDelay="21.63" arrival="28860.00" arrivalLane="1148421491#1_0" arrivalPos="44.65" arrivalSpeed="6.80" duration="32.00" routeLength="290.78" waitingTime="1.00" waitingCount="1" stopTime="0.00" timeLoss="15.11" rerouteNo="1" devices="tripinfo_from_east_left_turn_morning_peak.1 routing_from_east_left_turn_morning_peak.1" vType="motorcycle" speedFactor="1.00" vaporized=""/>
    <tripinfo id="from_east_right_turn_morning_peak.1" depart="28830.00" departLane="1354145734#1_0" departPos="5.10" departSpeed="0.00" departDelay="23.63" arrival="28862.00" arrivalLane="328349209#9_1" arrivalPos="20.69" arrivalSpeed="28.48" duration="32.00" routeLength="363.40" waitingTime="1.00" waitingCount="1" stopTime="0.00" timeLoss="17.18" rerouteNo="1" devices="tripinfo_from_east_right_turn_morning_peak.1 routing_from_east_right_turn_morning_peak.1" vType="car" speedFactor="1.03" vaporized=""/>
    <tripinfo id="from_south_right_turn_morning_peak.1" depart="28809.00" departLane="638541493#1_0" departPos="2.30" departSpeed="0.00" departDelay="1.24" arrival="28862.00" arrivalLane="638541497#1_1" arrivalPos="50.87" arrivalSpeed="22.21" duration="53.00" routeLength="162.04" waitingTime="28.00" waitingCount="1" stopTime="0.00" timeLoss="38.12" rerouteNo="1" devices="tripinfo_from_south_right_turn_morning_peak.1 routing_from_south_right_turn_morning_peak.1" vType="motorcycle" speedFactor="0.89" vaporized=""/>
    <tripinfo id="from_west_straight_morning_peak.0" depart="28800.00" departLane="263812623#1_0" departPos="2.30" departSpeed="0.00" departDelay="0.00" arrival="28864.00" arrivalLane="638541497#16_1" arrivalPos="109.58" arrivalSpeed="26.58" duration="64.00" routeLength="1048.79" waitingTime="0.00" waitingCount="0" stopTime="0.00" timeLoss="9.72" rerouteNo="1" devices="tripinfo_from_west_straight_morning_peak.0 routing_from_west_straight_morning_peak.0" vType="motorcycle" speedFactor="0.98" vaporized=""/>
    <tripinfo id="from_south_right_turn_morning_peak.2" depart="28818.00" departLane="638541493#1_0" departPos="2.30" departSpeed="0.00" departDelay="2.48" arrival="28865.00" arrivalLane="638541497#1_1" arrivalPos="50.87" arrivalSpeed="19.78" duration="47.00" routeLength="162.04" waitingTime="21.00" waitingCount="1" stopTime="0.00" timeLoss="30.55" rerouteNo="1" devices="tripinfo_from_south_right_turn_morning_peak.2 routing_from_south_right_turn_morning_peak.2" vType="motorcycle" speedFactor="0.80" vaporized=""/>
    <tripinfo id="emergency_ambulance_west_morning_peak.0" depart="28803.00" departLane="263812623#1_0" departPos="5.10" departSpeed="0.00" departDelay="3.00" arrival="28867.00" arrivalLane="638541497#16_0" arrivalPos="109.58" arrivalSpeed="27.58" duration="64.00" routeLength="1045.99" waitingTime="0.00" waitingCount="0" stopTime="0.00" timeLoss="11.10" rerouteNo="1" devices="tripinfo_emergency_ambulance_west_morning_peak.0 routing_emergency_ambulance_west_morning_peak.0" vType="ambulance" speedFactor="1.00" vaporized=""/>
    <tripinfo id="from_south_right_turn_morning_peak.3" depart="28825.00" departLane="638541493#1_0" departPos="2.30" departSpeed="0.00" departDelay="1.73" arrival="28867.00" arrivalLane="638541497#1_1" arrivalPos="50.87" arrivalSpeed="24.12" duration="42.00" routeLength="162.04" waitingTime="17.00" waitingCount="1" stopTime="0.00" timeLoss="27.68" rerouteNo="1" devices="tripinfo_from_south_right_turn_morning_peak.3 routing_from_south_right_turn_morning_peak.3" vType="motorcycle" speedFactor="0.95" vaporized=""/>
    <tripinfo id="from_south_straight_morning_peak.0" depart="28800.00" departLane="638541493#1_0" departPos="5.10" departSpeed="0.00" departDelay="0.00" arrival="28868.00" arrivalLane="328349209#9_0" arrivalPos="20.69" arrivalSpeed="23.55" duration="68.00" routeLength="342.64" waitingTime="33.00" waitingCount="1" stopTime="0.00" timeLoss="46.72" rerouteNo="1" devices="tripinfo_from_south_straight_morning_peak.0 routing_from_south_straight_morning_peak.0" vType="car" speedFactor="0.89" vaporized=""/>
    <tripinfo id="from_south_right_turn_morning_peak.4" depart="28834.00" departLane="638541493#1_0" departPos="2.30" departSpeed="0.00" departDelay="2.97" arrival="28868.00" arrivalLane="638541497#1_1" arrivalPos="50.87" arrivalSpeed="21.92" duration="34.00" routeLength="162.04" waitingTime="10.00" waitingCount="1" stopTime="0.00" timeLoss="20.69" rerouteNo="1" devices="tripinfo_from_south_right_turn_morning_peak.4 routing_from_south_right_turn_morning_peak.4" vType="motorcycle" speedFactor="0.97" vaporized=""/>
    <tripinfo id="from_south_right_turn_morning_peak.6" depart="28849.00" departLane="638541493#1_0" departPos="2.30" departSpeed="0.00" departDelay="2.45" arrival="28870.00" arrivalLane="638541497#1_1" arrivalPos="50.87" arrivalSpeed="25.69" duration="21.00" routeLength="162.04" waitingTime="2.00" waitingCount="2" stopTime="0.00" timeLoss="9.61" rerouteNo="1" devices="tripinfo_from_south_right_turn_morning_peak.6 routing_from_south_right_turn_morning_peak.6" vType="motorcycle" speedFactor="1.17" vaporized=""/>
    <tripinfo id="from_east_straight_morning_peak.0" depart="28800.00" departLane="1354145734#1_0" departPos="5.10" departSpeed="0.00" departDelay="0.00" arrival="28871.00" arrivalLane="638541495#1_1" arrivalPos="26.02" arrivalSpeed="7.53" duration="71.00" routeLength="627.14" waitingTime="0.00" waitingCount="0" stopTime="0.00" timeLoss="12.13" rerouteNo="1" devices="tripinfo_from_east_straight_morning_peak.0 routing_from_east_straight_morning_peak.0" vType="auto" speedFactor="1.03" vaporized=""/>
    <tripinfo id="emergency_ambulance_south_morning_peak.0" depart="28804.00" departLane="638541493#1_0" departPos="5.10" departSpeed="0.00" departDelay="4.00" arrival="28872.00" arrivalLane="328349209#9_0" arrivalPos="20.69" arrivalSpeed="27.17" duration="68.00" routeLength="342.64" waitingTime="32.00" waitingCount="1" stopTime="0.00" timeLoss="48.37" rerouteNo="1" devices="tripinfo_emergency_ambulance_south_morning_peak.0 routing_emergency_ambulance_south_morning_peak.0" vType="ambulance" speedFactor="1.00" vaporized=""/>
    <tripinfo id="from_east_right_turn_morning_peak.2" depart="28846.00" departLane="1354145734#1_0" departPos="2.30" departSpeed="0.00" departDelay="33.26" arrival="28872.00" arrivalLane="328349209#9_1" arrivalPos="20.69" arrivalSpeed="26.26" duration="26.00" routeLength="366.20" waitingTime="0.00" waitingCount="0" stopTime="0.00" timeLoss="11.30" rerouteNo="1" devices="tripinfo_from_east_right_turn_morning_peak.2 routing_from_east_right_turn_morning_peak.2" vType="motorcycle" speedFactor="1.01" vaporized=""/>
    <tripinfo id="from_south_left_turn_morning_peak.0" depart="28801.00" departLane="638541493#1_0" departPos="2.30" departSpeed="0.00" departDelay="1.00" arrival="28876.00" arrivalLane="638541495#2_0" arrivalPos="30.24" arrivalSpeed="5.92" duration="75.00" routeLength="503.80" waitingTime="0.00" waitingCount="0" stopTime="0.00" timeLoss="14.81" rerouteNo="1" devices="tripinfo_from_south_left_turn_morning_peak.0 routing_from_south_left_turn_morning_peak.0" vType="motorcycle" speedFactor="0.95" vaporized=""/>
    <tripinfo id="from_south_right_turn_morning_peak.5" depart="28841.00" departLane="638541493#1_0" departPos="2.30" departSpeed="0.00" departDelay="2.21" arrival="28876.00" arrivalLane="638541497#1_1" arrivalPos="50.87" arrivalSpeed="26.22" duration="35.00" routeLength="162.04" waitingTime="8.00" waitingCount="1" stopTime="0.00" timeLoss="22.54" rerouteNo="1" devices="tripinfo_from_south_right_turn_morning_peak.5 routing_from_south_right_turn_morning_peak.5" vType="motorcycle" speedFactor="1.11" vaporized=""/>
    <tripinfo id="from_south_left_turn_morning_peak.2" depart="28816.00" departLane="638541493#1_0" departPos="5.10" departSpeed="0.00" departDelay="0.48" arrival="28878.00" arrivalLane="638541495#2_0" arrivalPos="30.24" arrivalSpeed="8.07" duration="62.00" routeLength="501.00" waitingTime="0.00" waitingCount="0" stopTime="0.00" timeLoss="8.36" rerouteNo="1" devices="tripinfo_from_south_left_turn_morning_peak.2 routing_from_south_left_turn_morning_peak.2" vType="car" speedFactor="1.06" vaporized=""/>
    <tripinfo id="from_south_right_turn_morning_peak.7" depart="28860.00" departLane="638541493#1_0" departPos="5.10" departSpeed="0.00" departDelay="5.69" arrival="28878.00" arrivalLane="638541497#1_1" arrivalPos="50.87" arrivalSpeed="19.03" duration="18.00" routeLength="159.24" waitingTime="0.00" waitingCount="0" stopTime="0.00" timeLoss="5.86" rerouteNo="1" devices="tripinfo_from_south_right_turn_morning_peak.7 routing_from_south_right_turn_morning_peak.7" vType="car" speedFactor="1.03" vaporized=""/>
    <tripinfo id="from_south_right_turn_morning_peak.8" depart="28865.00" departLane="638541493#1_0" departPos="5.10" departSpeed="0.00" departDelay="2.94" arrival="28881.00" arrivalLane="638541497#1_1" arrivalPos="50.87" arrivalSpeed="20.81" duration="16.00" routeLength="159.24" waitingTime="0.00" waitingCount="0" stopTime="0.00" timeLoss="5.48" rerouteNo="1" devices="tripinfo_from_south_right_turn_morning_peak.8 routing_from_south_right_turn_morning_peak.8" vType="car" speedFactor="1.20" vaporized=""/>
    <tripinfo id="from_south_left_turn_morning_peak.1" depart="28808.00" departLane="638541493#1_0" departPos="2.30" departSpeed="0.00" departDelay="0.24" arrival="28882.00" arrivalLane="638541495#2_0" arrivalPos="30.24" arrivalSpeed="6.42" duration="74.00" routeLength="503.80" waitingTime="0.00" waitingCount="0" stopTime="0.00" timeLoss="16.77" rerouteNo="1" devices="tripinfo_from_south_left_turn_morning_peak.1 routing_from_south_left_turn_morning_peak.1" vType="motorcycle" speedFactor="1.00" vaporized=""/>
    <tripinfo id="emergency_ambulance_east_morning_peak.0" depart="28809.00" departLane="1354145734#1_0" departPos="5.10" departSpeed="0.00" departDelay="9.00" arrival="28883.00" arrivalLane="638541495#1_0" arrivalPos="26.02" arrivalSpeed="8.26" duration="74.00" routeLength="627.14" waitingTime="0.00" waitingCount="0" stopTime="0.00" timeLoss="13.66" rerouteNo="1" devices="tripinfo_emergency_ambulance_east_morning_peak.0 routing_emergency_ambulance_east_morning_peak.0" vType="ambulance" speedFactor="1.00" vaporized=""/>
    <tripinfo id="10" depart="28836.00" departLane="36257667#9_0" departPos="5.10" departSpeed="0.00" departDelay="0.00" arrival="28885.00" arrivalLane="213087089_0" arrivalPos="91.98" arrivalSpeed="11.34" duration="49.00" routeLength="437.32" waitingTime="0.00" waitingCount="0" stopTime="0.00" timeLoss="10.79" rerouteNo="1" devices="tripinfo_10 routing_10" vType="DEFAULT_VEHTYPE" speedFactor="0.90" vaporized=""/>
    <tripinfo id="from_east_right_turn_morning_peak.3" depart="28859.00" departLane="1354145734#1_0" departPos="2.30" departSpeed="0.00" departDelay="39.89" arrival="28885.00" arrivalLane="328349209#9_1" arrivalPos="20.69" arrivalSpeed="24.21" duration="26.00" routeLength="366.20" waitingTime="0.00" waitingCount="0" stopTime="0.00" timeLoss="10.90" rerouteNo="1" devices="tripinfo_from_east_right_turn_morning_peak.3 routing_from_east_right_turn_morning_peak.3" vType="motorcycle" speedFactor="0.95" vaporized=""/>
    <tripinfo id="7" depart="28826.00" departLane="169711262#3_0" departPos="5.10" departSpeed="0.00" departDelay="0.80" arrival="28886.00" arrivalLane="132907562#1_0" arrivalPos="14.25" arrivalSpeed="11.22" duration="60.00" routeLength="573.45" waitingTime="0.00" waitingCount="0" stopTime="0.00" timeLoss="10.38" rerouteNo="1" devices="tripinfo_7 routing_7" vType="DEFAULT_VEHTYPE" speedFactor="0.90" vaporized=""/>
    <tripinfo id="from_south_left_turn_morning_peak.3" depart="28824.00" departLane="638541493#1_0" departPos="2.30" departSpeed="0.00" departDelay="0.73" arrival="28886.00" arrivalLane="638541495#2_1" arrivalPos="30.24" arrivalSpeed="8.09" duration="62.00" routeLength="503.80" waitingTime="0.00" waitingCount="0" stopTime="0.00" timeLoss="12.96" rerouteNo="1" devices="tripinfo_from_south_left_turn_morning_peak.3 routing_from_south_left_turn_morning_peak.3" vType="motorcycle" speedFactor="1.16" vaporized=""/>
    <tripinfo id="from_south_straight_morning_peak.1" depart="28835.00" departLane="638541493#1_0" departPos="12.10" departSpeed="0.00" departDelay="0.05" arrival="28888.00" arrivalLane="328349209#9_0" arrivalPos="20.69" arrivalSpeed="20.12" duration="53.00" routeLength="335.64" waitingTime="11.00" waitingCount="2" stopTime="0.00" timeLoss="34.89" rerouteNo="1" devices="tripinfo_from_south_straight_morning_peak.1 routing_from_south_straight_morning_peak.1" vType="bus" speedFactor="1.00" vaporized=""/>
    <tripinfo id="from_south_right_turn_morning_peak.9" depart="28874.00" departLane="638541493#1_0" departPos="5.10" departSpeed="0.00" departDelay="4.18" arrival="28890.00" arrivalLane="638541497#1_1" arrivalPos="50.87" arrivalSpeed="19.98" duration="16.00" routeLength="159.24" waitingTime="0.00" waitingCount="0" stopTime="0.00" timeLoss="4.96" rerouteNo="1" devices="tripinfo_from_south_right_turn_morning_peak.9 routing_from_south_right_turn_morning_peak.9" vType="car" speedFactor="1.13" vaporized=""/>
    <tripinfo id="2" depart="28808.00" departLane="26284129#7_0" departPos="5.10" departSpeed="0.00" departDelay="0.80" arrival="28892.00" arrivalLane="213042766#5_0" arrivalPos="50.03" arrivalSpeed="13.91" duration="84.00" routeLength="1012.11" waitingTime="4.00" waitingCount="1" stopTime="0.00" timeLoss="24.09" rerouteNo="1" devices="tripinfo_2 routing_2" vType="DEFAULT_VEHTYPE" speedFactor="1.06" vaporized=""/>
    <tripinfo id="from_south_straight_morning_peak.2" depart="28870.00" departLane="638541493#1_0" departPos="2.30" departSpeed="0.00" departDelay="0.10" arrival="28895.00" arrivalLane="328349209#9_0" arrivalPos="20.69" arrivalSpeed="27.27" duration="25.00" routeLength="345.44" waitingTime="0.00" waitingCount="0" stopTime="0.00" timeLoss="6.88" rerouteNo="1" devices="tripinfo_from_south_straight_morning_peak.2 routing_from_south_straight_morning_peak.2" vType="motorcycle" speedFactor="1.04" vaporized=""/>
    <tripinfo id="11" depart="28840.00" departLane="-484510040#17_0" departPos="5.10" departSpeed="0.00" departDelay="0.40" arrival="28898.00" arrivalLane="-169711276#0_0" arrivalPos="9.15" arrivalSpeed="10.78" duration="58.00" routeLength="610.46" waitingTime="0.00" waitingCount="0" stopTime="0.00" timeLoss="21.42" rerouteNo="1" devices="tripinfo_11 routing_11" vType="DEFAULT_VEHTYPE" speedFactor="1.06" vaporized=""/>
    <tripinfo id="from_east_straight_morning_peak.1" depart="28815.00" departLane="1354145734#1_0" departPos="2.30" departSpeed="0.00" departDelay="13.64" arrival="28901.00" arrivalLane="638541495#1_0" arrivalPos="26.02" arrivalSpeed="7.21" duration="86.00" routeLength="629.94" waitingTime="0.00" waitingCount="0" stopTime="0.00" timeLoss="20.05" rerouteNo="1" devices="tripinfo_from_east_straight_morning_peak.1 routing_from_east_straight_morning_peak.1" vType="motorcycle" speedFactor="0.92" vaporized=""/>
    <tripinfo id="from_east_straight_morning_peak.3" depart="28820.00" departLane="1354145734#1_0" departPos="2.30" departSpeed="0.00" departDelay="15.91" arrival="28901.00" arrivalLane="638541495#1_1" arrivalPos="26.02" arrivalSpeed="6.67" duration="81.00" routeLength="629.94" waitingTime="0.00" waitingCount="0" stopTime="0.00" timeLoss="21.50" rerouteNo="1" devices="tripinfo_from_east_straight_morning_peak.3 routing_from_east_straight_morning_peak.3" vType="motorcycle" speedFactor="1.02" vaporized=""/>
    <tripinfo id="from_east_straight_morning_peak.2" depart="28817.00" departLane="1354145734#1_0" departPos="5.10" departSpeed="0.00" departDelay="14.27" arrival="28903.00" arrivalLane="638541495#1_0" arrivalPos="26.02" arrivalSpeed="7.62" duration="86.00" routeLength="627.14" waitingTime="0.00" waitingCount="0" stopTime="0.00" timeLoss="21.99" rerouteNo="1" devices="tripinfo_from_east_straight_morning_peak.2 routing_from_east_straight_morning_peak.2" vType="car" speedFactor="0.94" vaporized=""/>
    <tripinfo id="from_east_straight_morning_peak.4" depart="28822.00" departLane="1354145734#1_0" departPos="5.10" departSpeed="0.00" departDelay="16.54" arrival="28903.00" arrivalLane="638541495#1_1" arrivalPos="26.02" arrivalSpeed="7.38" duration="81.00" routeLength="627.14" waitingTime="0.00" waitingCount="0" stopTime="0.00" timeLoss="18.43" rerouteNo="1" devices="tripinfo_from_east_straight_morning_peak.4 routing_from_east_straight_morning_peak.4" vType="car" speedFactor="0.96" vaporized=""/>
    <tripinfo id="1" depart="28804.00" departLane="-26284183#2_0" departPos="5.10" departSpeed="0.00" departDelay="0.40" arrival="28909.00" arrivalLane="-26284129#7_0" arrivalPos="40.68" arrivalSpeed="18.04" duration="105.00" routeLength="563.24" waitingTime="54.00" waitingCount="1" stopTime="0.00" timeLoss="75.24" rerouteNo="1" devices="tripinfo_1 routing_1" vType="DEFAULT_VEHTYPE" speedFactor="1.09" vaporized=""/>
    <tripinfo id="from_east_left_turn_morning_peak.2" depart="28844.00" departLane="1354145734#1_0" departPos="5.10" departSpeed="0.00" departDelay="31.26" arrival="28910.00" arrivalLane="1148421491#1_0" arrivalPos="44.65" arrivalSpeed="6.89" duration="66.00" routeLength="287.98" waitingTime="29.00" waitingCount="1" stopTime="0.00" timeLoss="47.48" rerouteNo="1" devices="tripinfo_from_east_left_turn_morning_peak.2 routing_from_east_left_turn_morning_peak.2" vType="auto" speedFactor="0.96" vaporized=""/>
    <tripinfo id="30" depart="28908.00" departLane="-37110889#1_0" departPos="5.10" departSpeed="0.00" departDelay="0.00" arrival="28911.00" arrivalLane="-37110889#1_0" arrivalPos="11.84" arrivalSpeed="5.78" duration="3.00" routeLength="6.74" waitingTime="0.00" waitingCount="0" stopTime="0.00" timeLoss="2.59" rerouteNo="1" devices="tripinfo_30 routing_30" vType="DEFAULT_VEHTYPE" speedFactor="1.22" vaporized=""/>
    <tripinfo id="from_south_left_turn_morning_peak.6" depart="28847.00" departLane="638541493#1_0" departPos="2.30" departSpeed="0.00" departDelay="0.45" arrival="28913.00" arrivalLane="638541495#2_1" arrivalPos="30.24" arrivalSpeed="7.25" duration="66.00" routeLength="503.80" waitingTime="0.00" waitingCount="0" stopTime="0.00" timeLoss="13.74" rerouteNo="1" devices="tripinfo_from_south_left_turn_morning_peak.6 routing_from_south_left_turn_morning_peak.6" vType="motorcycle" speedFactor="1.09" vaporized=""/>
    <tripinfo id="from_east_left_turn_morning_peak.3" depart="28857.00" departLane="1354145734#1_0" departPos="2.30" departSpeed="0.00" departDelay="37.89" arrival="28915.00" arrivalLane="1148421491#1_0" arrivalPos="44.65" arrivalSpeed="6.17" duration="58.00" routeLength="290.78" waitingTime="21.00" waitingCount="1" stopTime="0.00" timeLoss="41.89" rerouteNo="1" devices="tripinfo_from_east_left_turn_morning_peak.3 routing_from_east_left_turn_morning_peak.3" vType="motorcycle" speedFactor="1.04" vaporized=""/>
    <tripinfo id="from_south_left_turn_morning_peak.4" depart="28832.00" departLane="638541493#1_0" departPos="2.30" departSpeed="0.00" departDelay="0.97" arrival="28916.00" arrivalLane="638541495#2_0" arrivalPos="30.24" arrivalSpeed="6.95" duration="84.00" routeLength="503.80" waitingTime="5.00" waitingCount="1" stopTime="0.00" timeLoss="25.73" rerouteNo="1" devices="tripinfo_from_south_left_turn_morning_peak.4 routing_from_south_left_turn_morning_peak.4" vType="motorcycle" speedFactor="0.98" vaporized=""/>
    <tripinfo id="from_west_straight_morning_peak.2" depart="28811.00" departLane="263812623#1_0" departPos="2.30" departSpeed="0.00" departDelay="8.62" arrival="28917.00" arrivalLane="638541497#16_0" arrivalPos="109.58" arrivalSpeed="26.76" duration="106.00" routeLength="1048.79" waitingTime="42.00" waitingCount="1" stopTime="0.00" timeLoss="53.87" rerouteNo="1" devices="tripinfo_from_west_straight_morning_peak.2 routing_from_west_straight_morning_peak.2" vType="motorcycle" speedFactor="1.00" vaporized=""/>
    <tripinfo id="from_west_left_turn_morning_peak.1" depart="28818.00" departLane="263812623#1_0" departPos="5.10" departSpeed="0.00" departDelay="12.44" arrival="28917.00" arrivalLane="328349209#9_0" arrivalPos="20.69" arrivalSpeed="27.64" duration="99.00" routeLength="674.73" waitingTime="36.00" waitingCount="2" stopTime="0.00" timeLoss="60.45" rerouteNo="1" devices="tripinfo_from_west_left_turn_morning_peak.1 routing_from_west_left_turn_morning_peak.1" vType="car" speedFactor="1.02" vaporized=""/>
    <tripinfo id="from_south_left_turn_morning_peak.5" depart="28839.00" departLane="638541493#1_0" departPos="5.10" departSpeed="0.00" departDelay="0.21" arrival="28917.00" arrivalLane="638541495#2_1" arrivalPos="30.24" arrivalSpeed="6.58" duration="78.00" routeLength="501.00" waitingTime="0.00" waitingCount="0" stopTime="0.00" timeLoss="16.25" rerouteNo="1" devices="tripinfo_from_south_left_turn_morning_peak.5 routing_from_south_left_turn_morning_peak.5" vType="auto" speedFactor="0.93" vaporized=""/>
    <tripinfo id="from_west_straight_morning_peak.1" depart="28809.00" departLane="263812623#1_0" departPos="2.30" departSpeed="0.00" departDelay="7.81" arrival="28919.00" arrivalLane="638541497#16_0" arrivalPos="109.58" arrivalSpeed="25.42" duration="110.00" routeLength="1048.79" waitingTime="44.00" waitingCount="1" stopTime="0.00" timeLoss="55.78" rerouteNo="1" devices="tripinfo_from_west_straight_morning_peak.1 routing_from_west_straight_morning_peak.1" vType="motorcycle" speedFactor="0.98" vaporized=""/>
    <tripinfo id="12" depart="28844.00" departLane="638541497#8_0" departPos="5.10" departSpeed="0.00" departDelay="0.80" arrival="28919.00" arrivalLane="-553250634#1_0" arrivalPos="19.11" arrivalSpeed="10.19" duration="75.00" routeLength="630.48" waitingTime="23.00" waitingCount="1" stopTime="0.00" timeLoss="46.75" rerouteNo="1" devices="tripinfo_12 routing_12" vType="DEFAULT_VEHTYPE" speedFactor="0.96" vaporized=""/>
    <tripinfo id="from_west_straight_morning_peak.4" depart="28815.00" departLane="263812623#1_0" departPos="2.30" departSpeed="0.00" departDelay="10.23" arrival="28919.00" arrivalLane="638541497#16_1" arrivalPos="109.58" arrivalSpeed="29.42" duration="104.00" routeLength="1048.79" waitingTime="41.00" waitingCount="1" stopTime="0.00" timeLoss="57.18" rerouteNo="1" devices="tripinfo_from_west_straight_morning_peak.4 routing_from_west_straight_morning_peak.4" vType="motorcycle" speedFactor="1.13" vaporized=""/>
    <tripinfo id="from_east_left_turn_morning_peak.5" depart="28881.00" departLane="1354145734#1_0" departPos="2.30" departSpeed="0.00" departDelay="49.15" arrival="28920.00" arrivalLane="1148421491#1_0" arrivalPos="44.65" arrivalSpeed="7.45" duration="39.00" routeLength="290.78" waitingTime="1.00" waitingCount="1" stopTime="0.00" timeLoss="20.41" rerouteNo="1" devices="tripinfo_from_east_left_turn_morning_peak.5 routing_from_east_left_turn_morning_peak.5" vType="motorcycle" speedFactor="0.94" vaporized=""/>
    <tripinfo id="from_west_straight_morning_peak.3" depart="28813.00" departLane="263812623#1_0" departPos="2.30" departSpeed="0.00" departDelay="9.42" arrival="28921.00" arrivalLane="638541497#16_0" arrivalPos="109.58" arrivalSpeed="25.56" duration="108.00" routeLength="1048.79" waitingTime="38.00" waitingCount="1" stopTime="0.00" timeLoss="51.33" rerouteNo="1" devices="tripinfo_from_west_straight_morning_peak.3 routing_from_west_straight_morning_peak.3" vType="motorcycle" speedFactor="0.93" vaporized=""/>