<?xml version="1.0" encoding="UTF-8"?>

<!-- generated on 2025-11-17 18:14:41 by Eclipse SUMO sumo Version 1.24.0
<sumoConfiguration xmlns:xsi="http://www.w3.org/2001/XMLSchema-instance" xsi:noNamespaceSchemaLocation="http://sumo.dlr.de/xsd/sumoConfiguration.xsd">

    <input>
        <net-file value="SUMO_Trinity_Traffic_sim/osm.net.xml.gz"/>
        <route-files value="SUMO_Trinity_Traffic_sim/mg_road.rou.xml,SUMO_Trinity_Traffic_sim/ background.rou.xml"/>
        <additional-files value="SUMO_Trinity_Traffic_sim/osm.poly.xml.gz"/>
    </input>

    <output>
        <tripinfo-output value="SUMO_Trinity_Traffic_sim/tripinfo.xml"/>
    </output>

    <processing>
        <ignore-route-errors value="true"/>
        <tls.actuated.jam-threshold value="30"/>
    </processing>

    <routing>
        <device.rerouting.adaptation-steps value="18"/>
        <device.rerouting.adaptation-interval value="10"/>
    </routing>

    <report>
        <verbose value="true"/>
        <no-warnings value="true"/>
        <duration-log.statistics value="true"/>
        <no-step-log value="true"/>
    </report>

    <traci_server>
        <remote-port value="50628"/>
    </traci_server>

    <random_number>
        <seed value="42"/>
    </random_number>

    <gui_only>
        <gui-settings-file value="SUMO_Trinity_Traffic_sim/osm.view.xml"/>
    </gui_only>

</sumoConfiguration>
-->

<tripinfos xmlns:xsi="http://www.w3.org/2001/XMLSchema-instance" xsi:noNamespaceSchemaLocation="http://sumo.dlr.de/xsd/tripinfo_file.xsd">
    <tripinfo id="from_east_left_turn_morning_peak.0" depart="28802.00" departLane="1354145734#1_0" departPos="2.30" departSpeed="0.00" departDelay="2.00" arrival="28829.00" arrivalLane="1148421491#1_0" arrivalPos="44.65" arrivalSpeed="6.69" duration="27.00" routeLength="290.78" waitingTime="0.00" waitingCount="0" stopTime="0.00" timeLoss="11.04" rerouteNo="1" devices="tripinfo_from_east_left_turn_morning_peak.0 routing_from_east_left_turn_morning_peak.0" vType="motorcycle" speedFactor="1.06" vaporized=""/>
    <tripinfo id="from_east_right_turn_morning_peak.0" depart="28803.00" departLane="1354145734#1_0" departPos="5.10" departSpeed="0.00" departDelay="3.00" arrival="28834.00" arrivalLane="328349209#9_1" arrivalPos="20.69" arrivalSpeed="28.37" duration="31.00" routeLength="363.40" waitingTime="0.00" waitingCount="0" stopTime="0.00" timeLoss="17.39" rerouteNo="1" devices="tripinfo_from_east_right_turn_morning_peak.0 routing_from_east_right_turn_morning_peak.0" vType="car" speedFactor="1.04" vaporized=""/>
    <tripinfo id="0" depart="28800.00" departLane="169709329#5_0" departPos="5.10" departSpeed="0.00" departDelay="0.00" arrival="28839.00" arrivalLane="-1103062099#1_0" arrivalPos="7.64" arrivalSpeed="11.54" duration="39.00" routeLength="124.30" waitingTime="0.00" waitingCount="0" stopTime="0.00" timeLoss="10.20" rerouteNo="1" devices="tripinfo_0 routing_0" vType="DEFAULT_VEHTYPE" speedFactor="0.92" vaporized=""/>
    <tripinfo id="from_east_right_turn_morning_peak.1" depart="28817.00" departLane="1354145734#1_0" departPos="2.30" departSpeed="0.00" departDelay="10.63" arrival="28842.00" arrivalLane="328349209#9_1" arrivalPos="20.69" arrivalSpeed="32.49" duration="25.00" routeLength="366.20" waitingTime="0.00" waitingCount="0" stopTime="0.00" timeLoss="12.41" rerouteNo="1" devices="tripinfo_from_east_right_turn_morning_peak.1 routing_from_east_right_turn_morning_peak.1" vType="motorcycle" speedFactor="1.19" vaporized=""/>
    <tripinfo id="from_east_left_turn_morning_peak.1" depart="28815.00" departLane="1354145734#1_0" departPos="5.10" departSpeed="0.00" departDelay="8.63" arrival="28845.00" arrivalLane="1148421491#1_0" arrivalPos="44.65" arrivalSpeed="7.51" duration="30.00" routeLength="287.98" waitingTime="0.00" waitingCount="0" stopTime="0.00" timeLoss="12.78" rerouteNo="1" devices="tripinfo_from_east_left_turn_morning_peak.1 routing_from_east_left_turn_morning_peak.1" vType="auto" speedFactor="0.97" vaporized=""/>
    <tripinfo id="3" depart="28811.00" departLane="491106117#3_0" departPos="5.10" departSpeed="0.00" departDelay="0.20" arrival="28847.00" arrivalLane="-132907566#1_0" arrivalPos="45.08" arrivalSpeed="14.44" duration="36.00" routeLength="342.86" waitingTime="0.00" waitingCount="0" stopTime="0.00" timeLoss="11.12" rerouteNo="1" devices="tripinfo_3 routing_3" vType="DEFAULT_VEHTYPE" speedFactor="1.13" vaporized=""/>
    <tripinfo id="from_west_left_turn_morning_peak.0" depart="28801.00" departLane="263812623#1_0" departPos="5.10" departSpeed="0.00" departDelay="1.00" arrival="28849.00" arrivalLane="328349209#9_0" arrivalPos="20.69" arrivalSpeed="27.98" duration="48.00" routeLength="674.73" waitingTime="0.00" waitingCount="0" stopTime="0.00" timeLoss="13.97" rerouteNo="1" devices="tripinfo_from_west_left_turn_morning_peak.0 routing_from_west_left_turn_morning_peak.0" vType="car" speedFactor="1.16" vaporized=""/>
    <tripinfo id="from_west_straight_morning_peak.0" depart="28800.00" departLane="263812623#1_0" departPos="2.30" departSpeed="0.00" departDelay="0.00" arrival="28853.00" arrivalLane="638541497#16_0" arrivalPos="109.58" arrivalSpeed="30.17" duration="53.00" routeLength="1048.79" waitingTime="0.00" waitingCount="0" stopTime="0.00" timeLoss="5.73" rerouteNo="1" devices="tripinfo_from_west_straight_morning_peak.0 routing_from_west_straight_morning_peak.0" vType="motorcycle" speedFactor="1.12" vaporized=""/>
    <tripinfo id="from_west_straight_morning_peak.1" depart="28804.00" departLane="263812623#1_0" departPos="2.30" departSpeed="0.00" departDelay="2.81" arrival="28855.00" arrivalLane="638541497#16_1" arrivalPos="109.58" arrivalSpeed="33.64" duration="51.00" routeLength="1048.79" waitingTime="0.00" waitingCount="0" stopTime="0.00" timeLoss="7.39" rerouteNo="1" devices="tripinfo_from_west_straight_morning_peak.1 routing_from_west_straight_morning_peak.1" vType="motorcycle" speedFactor="1.22" vaporized=""/>
    <tripinfo id="from_west_right_turn_morning_peak.0" depart="28802.00" departLane="263812623#1_0" departPos="5.10" departSpeed="0.00" departDelay="2.00" arrival="28857.00" arrivalLane="1148421491#1_0" arrivalPos="44.65" arrivalSpeed="7.20" duration="55.00" routeLength="498.83" waitingTime="1.00" waitingCount="1" stopTime="0.00" timeLoss="14.69" rerouteNo="1" devices="tripinfo_from_west_right_turn_morning_peak.0 routing_from_west_right_turn_morning_peak.0" vType="car" speedFactor="0.97" vaporized=""/>
    <tripinfo id="from_south_right_turn_morning_peak.0" depart="28802.00" departLane="638541493#1_0" departPos="2.30" departSpeed="0.00" departDelay="2.00" arrival="28858.00" arrivalLane="638541497#1_1" arrivalPos="50.87" arrivalSpeed="26.66" duration="56.00" routeLength="162.04" waitingTime="32.00" waitingCount="1" stopTime="0.00" timeLoss="41.87" rerouteNo="1" devices="tripinfo_from_south_right_turn_morning_peak.0 routing_from_south_right_turn_morning_peak.0" vType="motorcycle" speedFactor="0.99" vaporized=""/>
    <tripinfo id="from_east_left_turn_morning_peak.2" depart="28827.00" departLane="1354145734#1_0" departPos="5.10" departSpeed="0.00" departDelay="14.26" arrival="28859.00" arrivalLane="1148421491#1_0" arrivalPos="44.65" arrivalSpeed="7.76" duration="32.00" routeLength="287.98" waitingTime="1.00" waitingCount="1" stopTime="0.00" timeLoss="15.38" rerouteNo="1" devices="tripinfo_from_east_left_turn_morning_peak.2 routing_from_east_left_turn_morning_peak.2" vType="auto" speedFactor="1.03" vaporized=""/>
    <tripinfo id="from_east_right_turn_morning_peak.2" depart="28830.00" departLane="1354145734#1_0" departPos="5.10" departSpeed="0.00" departDelay="17.26" arrival="28860.00" arrivalLane="328349209#9_1" arrivalPos="20.69" arrivalSpeed="23.98" duration="30.00" routeLength="363.40" waitingTime="0.00" waitingCount="0" stopTime="0.00" timeLoss="13.50" rerouteNo="1" devices="tripinfo_from_east_right_turn_morning_peak.2 routing_from_east_right_turn_morning_peak.2" vType="car" speedFactor="0.88" vaporized=""/>
    <tripinfo id="from_south_right_turn_morning_peak.1" depart="28811.00" departLane="638541493#1_0" departPos="5.10" departSpeed="0.00" departDelay="3.24" arrival="28861.00" arrivalLane="638541497#1_1" arrivalPos="50.87" arrivalSpeed="17.37" duration="50.00" routeLength="159.24" waitingTime="26.00" waitingCount="1" stopTime="0.00" timeLoss="32.80" rerouteNo="1" devices="tripinfo_from_south_right_turn_morning_peak.1 routing_from_south_right_turn_morning_peak.1" vType="car" speedFactor="0.74" vaporized=""/>
    <tripinfo id="from_south_right_turn_morning_peak.2" depart="28818.00" departLane="638541493#1_0" departPos="5.10" departSpeed="0.00" departDelay="2.48" arrival="28863.00" arrivalLane="638541497#1_1" arrivalPos="50.87" arrivalSpeed="18.42" duration="45.00" routeLength="159.24" waitingTime="23.00" waitingCount="1" stopTime="0.00" timeLoss="32.45" rerouteNo="1" devices="tripinfo_from_south_right_turn_morning_peak.2 routing_from_south_right_turn_morning_peak.2" vType="car" speedFactor="1.04" vaporized=""/>
    <tripinfo id="from_south_right_turn_morning_peak.3" depart="28827.00" departLane="638541493#1_0" departPos="5.10" departSpeed="0.00" departDelay="3.73" arrival="28864.00" arrivalLane="638541497#1_1" arrivalPos="50.87" arrivalSpeed="17.91" duration="37.00" routeLength="159.24" waitingTime="15.00" waitingCount="1" stopTime="0.00" timeLoss="24.11" rerouteNo="1" devices="tripinfo_from_south_right_turn_morning_peak.3 routing_from_south_right_turn_morning_peak.3" vType="auto" speedFactor="0.97" vaporized=""/>
    <tripinfo id="from_south_right_turn_morning_peak.4" depart="28833.00" departLane="638541493#1_0" departPos="2.30" departSpeed="0.00" departDelay="1.97" arrival="28866.00" arrivalLane="638541497#1_1" arrivalPos="50.87" arrivalSpeed="24.14" duration="33.00" routeLength="162.04" waitingTime="11.00" waitingCount="1" stopTime="0.00" timeLoss="20.56" rerouteNo="1" devices="tripinfo_from_south_right_turn_morning_peak.4 routing_from_south_right_turn_morning_peak.4" vType="motorcycle" speedFactor="1.07" vaporized=""/>
    <tripinfo id="from_south_straight_morning_peak.0" depart="28800.00" departLane="638541493#1_0" departPos="5.10" departSpeed="0.00" departDelay="0.00" arrival="28868.00" arrivalLane="328349209#9_0" arrivalPos="20.69" arrivalSpeed="25.11" duration="68.00" routeLength="342.64" waitingTime="33.00" waitingCount="1" stopTime="0.00" timeLoss="46.60" rerouteNo="1" devices="tripinfo_from_south_straight_morning_peak.0 routing_from_south_straight_morning_peak.0" vType="auto" speedFactor="0.92" vaporized=""/>
    <tripinfo id="from_south_right_turn_morning_peak.5" depart="28840.00" departLane="638541493#1_0" departPos="2.30" departSpeed="0.00" departDelay="1.21" arrival="28871.00" arrivalLane="638541497#1_1" arrivalPos="50.87" arrivalSpeed="23.26" duration="31.00" routeLength="162.04" waitingTime="7.00" waitingCount="1" stopTime="0.00" timeLoss="18.36" rerouteNo="1" devices="tripinfo_from_south_right_turn_morning_peak.5 routing_from_south_right_turn_morning_peak.5" vType="motorcycle" speedFactor="1.08" vaporized=""/>
    <tripinfo id="from_south_left_turn_morning_peak.0" depart="28801.00" departLane="638541493#1_0" departPos="2.30" departSpeed="0.00" departDelay="1.00" arrival="28872.00" arrivalLane="638541495#2_0" arrivalPos="30.24" arrivalSpeed="5.51" duration="71.00" routeLength="503.80" waitingTime="0.00" waitingCount="0" stopTime="0.00" timeLoss="14.57" rerouteNo="1" devices="tripinfo_from_south_left_turn_morning_peak.0 routing_from_south_left_turn_morning_peak.0" vType="motorcycle" speedFactor="1.02" vaporized=""/>
    <tripinfo id="from_east_straight_morning_peak.1" depart="28805.00" departLane="1354145734#1_0" departPos="2.30" departSpeed="0.00" departDelay="3.64" arrival="28873.00" arrivalLane="638541495#1_1" arrivalPos="26.02" arrivalSpeed="10.15" duration="68.00" routeLength="629.94" waitingTime="0.00" waitingCount="0" stopTime="0.00" timeLoss="20.79" rerouteNo="1" devices="tripinfo_from_east_straight_morning_peak.1 routing_from_east_straight_morning_peak.1" vType="motorcycle" speedFactor="1.28" vaporized=""/>
    <tripinfo id="from_east_right_turn_morning_peak.3" depart="28848.00" departLane="1354145734#1_0" departPos="2.30" departSpeed="0.00" departDelay="28.89" arrival="28873.00" arrivalLane="328349209#9_1" arrivalPos="20.69" arrivalSpeed="25.59" duration="25.00" routeLength="366.20" waitingTime="0.00" waitingCount="0" stopTime="0.00" timeLoss="10.25" rerouteNo="1" devices="tripinfo_from_east_right_turn_morning_peak.3 routing_from_east_right_turn_morning_peak.3" vType="motorcycle" speedFactor="1.01" vaporized=""/>
    <tripinfo id="from_south_right_turn_morning_peak.6" depart="28850.00" departLane="638541493#1_0" departPos="5.10" departSpeed="0.00" departDelay="3.45" arrival="28873.00" arrivalLane="638541497#1_1" arrivalPos="50.87" arrivalSpeed="20.64" duration="23.00" routeLength="159.24" waitingTime="0.00" waitingCount="0" stopTime="0.00" timeLoss="11.67" rerouteNo="1" devices="tripinfo_from_south_right_turn_morning_peak.6 routing_from_south_right_turn_morning_peak.6" vType="car" speedFactor="1.14" vaporized=""/>
    <tripinfo id="from_south_right_turn_morning_peak.7" depart="28857.00" departLane="638541493#1_0" departPos="2.30" departSpeed="0.00" departDelay="2.69" arrival="28875.00" arrivalLane="638541497#1_1" arrivalPos="50.87" arrivalSpeed="25.02" duration="18.00" routeLength="162.04" waitingTime="0.00" waitingCount="0" stopTime="0.00" timeLoss="4.58" rerouteNo="1" devices="tripinfo_from_south_right_turn_morning_peak.7 routing_from_south_right_turn_morning_peak.7" vType="motorcycle" speedFactor="0.98" vaporized=""/>
    <tripinfo id="from_east_straight_morning_peak.0" depart="28800.00" departLane="1354145734#1_0" departPos="5.10" departSpeed="0.00" departDelay="0.00" arrival="28876.00" arrivalLane="638541495#1_0" arrivalPos="26.02" arrivalSpeed="7.02" duration="76.00" routeLength="627.14" waitingTime="0.00" waitingCount="0" stopTime="0.00" timeLoss="12.04" rerouteNo="1" devices="tripinfo_from_east_straight_morning_peak.0 routing_from_east_straight_morning_peak.0" vType="car" speedFactor="0.94" vaporized=""/>
    <tripinfo id="from_south_left_turn_morning_peak.2" depart="28816.00" departLane="638541493#1_0" departPos="2.30" departSpeed="0.00" departDelay="0.48" arrival="28877.00" arrivalLane="638541495#2_1" arrivalPos="30.24" arrivalSpeed="9.54" duration="61.00" routeLength="503.80" waitingTime="0.00" waitingCount="0" stopTime="0.00" timeLoss="11.13" rerouteNo="1" devices="tripinfo_from_south_left_turn_morning_peak.2 routing_from_south_left_turn_morning_peak.2" vType="motorcycle" speedFactor="1.17" vaporized=""/>
    <tripinfo id="from_south_left_turn_morning_peak.1" depart="28808.00" departLane="638541493#1_0" departPos="5.10" departSpeed="0.00" departDelay="0.24" arrival="28878.00" arrivalLane="638541495#2_0" arrivalPos="30.24" arrivalSpeed="6.82" duration="70.00" routeLength="501.00" waitingTime="0.00" waitingCount="0" stopTime="0.00" timeLoss="8.87" rerouteNo="1" devices="tripinfo_from_south_left_turn_morning_peak.1 routing_from_south_left_turn_morning_peak.1" vType="auto" speedFactor="0.94" vaporized=""/>
    <tripinfo id="from_south_straight_morning_peak.1" depart="28835.00" departLane="638541493#1_0" departPos="2.30" departSpeed="0.00" departDelay="0.05" arrival="28879.00" arrivalLane="328349209#9_0" arrivalPos="20.69" arrivalSpeed="25.09" duration="44.00" routeLength="345.44" waitingTime="9.00" waitingCount="1" stopTime="0.00" timeLoss="22.98" rerouteNo="1" devices="tripinfo_from_south_straight_morning_peak.1 routing_from_south_straight_morning_peak.1" vType="motorcycle" speedFactor="0.95" vaporized=""/>
    <tripinfo id="7" depart="28826.00" departLane="169711262#3_0" departPos="5.10" departSpeed="0.00" departDelay="0.80" arrival="28881.00" arrivalLane="132907562#1_0" arrivalPos="14.25" arrivalSpeed="13.14" duration="55.00" routeLength="573.45" waitingTime="0.00" waitingCount="0" stopTime="0.00" timeLoss="10.99" rerouteNo="1" devices="tripinfo_7 routing_7" vType="DEFAULT_VEHTYPE" speedFactor="0.99" vaporized=""/>
    <tripinfo id="from_east_straight_morning_peak.2" depart="28806.00" departLane="1354145734#1_0" departPos="2.30" departSpeed="0.00" departDelay="3.27" arrival="28882.00" arrivalLane="638541495#1_0" arrivalPos="26.02" arrivalSpeed="5.73" duration="76.00" routeLength="629.94" waitingTime="0.00" waitingCount="0" stopTime="0.00" timeLoss="16.91" rerouteNo="1" devices="tripinfo_from_east_straight_morning_peak.2 routing_from_east_straight_morning_peak.2" vType="motorcycle" speedFactor="1.02" vaporized=""/>
    <tripinfo id="6" depart="28822.00" departLane="-1103062098#1_0" departPos="2.78" departSpeed="0.00" departDelay="0.40" arrival="28883.00" arrivalLane="-217536593_0" arrivalPos="46.13" arrivalSpeed="13.29" duration="61.00" routeLength="679.97" waitingTime="0.00" waitingCount="0" stopTime="0.00" timeLoss="17.67" rerouteNo="1" devices="tripinfo_6 routing_6" vType="DEFAULT_VEHTYPE" speedFactor="1.00" vaporized=""/>
    <tripinfo id="10" depart="28836.00" departLane="36257667#9_0" departPos="5.10" departSpeed="0.00" departDelay="0.00" arrival="28884.00" arrivalLane="213087089_0" arrivalPos="91.98" arrivalSpeed="12.89" duration="48.00" routeLength="437.32" waitingTime="0.00" waitingCount="0" stopTime="0.00" timeLoss="11.09" rerouteNo="1" devices="tripinfo_10 routing_10" vType="DEFAULT_VEHTYPE" speedFactor="0.94" vaporized=""/>
    <tripinfo id="from_east_straight_morning_peak.3" depart="28808.00" departLane="1354145734#1_0" departPos="5.10" departSpeed="0.00" departDelay="3.91" arrival="28884.00" arrivalLane="638541495#1_0" arrivalPos="26.02" arrivalSpeed="7.89" duration="76.00" routeLength="627.14" waitingTime="0.00" waitingCount="0" stopTime="0.00" timeLoss="17.53" rerouteNo="1" devices="tripinfo_from_east_straight_morning_peak.3 routing_from_east_straight_morning_peak.3" vType="auto" speedFactor="1.03" vaporized=""/>
    <tripinfo id="from_south_right_turn_morning_peak.8" depart="28865.00" departLane="638541493#1_0" departPos="2.30" departSpeed="0.00" departDelay="2.94" arrival="28884.00" arrivalLane="638541497#1_1" arrivalPos="50.87" arrivalSpeed="20.33" duration="19.00" routeLength="162.04" waitingTime="0.00" waitingCount="0" stopTime="0.00" timeLoss="5.18" rerouteNo="1" devices="tripinfo_from_south_right_turn_morning_peak.8 routing_from_south_right_turn_morning_peak.8" vType="motorcycle" speedFactor="0.92" vaporized=""/>
    <tripinfo id="2" depart="28808.00" departLane="26284129#7_0" departPos="5.10" departSpeed="0.00" departDelay="0.80" arrival="28887.00" arrivalLane="213042766#5_0" arrivalPos="50.03" arrivalSpeed="13.71" duration="79.00" routeLength="1012.11" waitingTime="0.00" waitingCount="0" stopTime="0.00" timeLoss="16.55" rerouteNo="1" devices="tripinfo_2 routing_2" vType="DEFAULT_VEHTYPE" speedFactor="1.03" vaporized=""/>
    <tripinfo id="from_east_straight_morning_peak.4" depart="28810.00" departLane="1354145734#1_0" departPos="2.30" departSpeed="0.00" departDelay="4.54" arrival="28888.00" arrivalLane="638541495#1_0" arrivalPos="26.02" arrivalSpeed="6.38" duration="78.00" routeLength="629.94" waitingTime="0.00" waitingCount="0" stopTime="0.00" timeLoss="20.21" rerouteNo="1" devices="tripinfo_from_east_straight_morning_peak.4 routing_from_east_straight_morning_peak.4" vType="motorcycle" speedFactor="1.04" vaporized=""/>
    <tripinfo id="from_east_straight_morning_peak.5" depart="28812.00" departLane="1354145734#1_0" departPos="5.10" departSpeed="0.00" departDelay="5.18" arrival="28892.00" arrivalLane="638541495#1_0" arrivalPos="26.02" arrivalSpeed="7.73" duration="80.00" routeLength="627.14" waitingTime="0.00" waitingCount="0" stopTime="0.00" timeLoss="16.04" rerouteNo="1" devices="tripinfo_from_east_straight_morning_peak.5 routing_from_east_straight_morning_peak.5" vType="auto" speedFactor="0.95" vaporized=""/>
    <tripinfo id="from_south_right_turn_morning_peak.9" depart="28873.00" departLane="638541493#1_0" departPos="2.30" departSpeed="0.00" departDelay="3.18" arrival="28892.00" arrivalLane="638541497#1_1" arrivalPos="50.87" arrivalSpeed="23.80" duration="19.00" routeLength="162.04" waitingTime="0.00" waitingCount="0" stopTime="0.00" timeLoss="4.83" rerouteNo="1" devices="tripinfo_from_south_right_turn_morning_peak.9 routing_from_south_right_turn_morning_peak.9" vType="motorcycle" speedFactor="0.92" vaporized=""/>
    <tripinfo id="from_east_right_turn_morning_peak.4" depart="28864.00" departLane="1354145734#1_0" departPos="5.10" departSpeed="0.00" departDelay="38.52" arrival="28893.00" arrivalLane="328349209#9_1" arrivalPos="20.69" arrivalSpeed="27.46" duration="29.00" routeLength="363.40" waitingTime="0.00" waitingCount="0" stopTime="0.00" timeLoss="14.83" rerouteNo="1" devices="tripinfo_from_east_right_turn_morning_peak.4 routing_from_east_right_turn_morning_peak.4" vType="car" speedFactor="0.99" vaporized=""/>
    <tripinfo id="from_south_left_turn_morning_peak.3" depart="28824.00" departLane="638541493#1_0" departPos="5.10" departSpeed="0.00" departDelay="0.73" arrival="28895.00" arrivalLane="638541495#2_1" arrivalPos="30.24" arrivalSpeed="8.22" duration="71.00" routeLength="501.00" waitingTime="4.00" waitingCount="1" stopTime="0.00" timeLoss="16.59" rerouteNo="1" devices="tripinfo_from_south_left_turn_morning_peak.3 routing_from_south_left_turn_morning_peak.3" vType="auto" speedFactor="1.04" vaporized=""/>
    <tripinfo id="11" depart="28840.00" departLane="-484510040#17_0" departPos="5.10" departSpeed="0.00" departDelay="0.40" arrival="28896.00" arrivalLane="-169711276#0_0" arrivalPos="9.15" arrivalSpeed="11.27" duration="56.00" routeLength="610.46" waitingTime="0.00" waitingCount="0" stopTime="0.00" timeLoss="18.42" rerouteNo="1" devices="tripinfo_11 routing_11" vType="DEFAULT_VEHTYPE" speedFactor="0.99" vaporized=""/>
    <tripinfo id="from_east_straight_morning_peak.7" depart="28821.00" departLane="1354145734#1_0" departPos="2.30" departSpeed="0.00" departDelay="11.45" arrival="28896.00" arrivalLane="638541495#1_0" arrivalPos="26.02" arrivalSpeed="8.53" duration="75.00" routeLength="629.94" waitingTime="0.00" waitingCount="0" stopTime="0.00" timeLoss="19.18" rerouteNo="1" devices="tripinfo_from_east_straight_morning_peak.7 routing_from_east_straight_morning_peak.7" vType="motorcycle" speedFactor="1.09" vaporized=""/>
    <tripinfo id="from_south_straight_morning_peak.2" depart="28870.00" departLane="638541493#1_0" departPos="2.30" departSpeed="0.00" departDelay="0.10" arrival="28899.00" arrivalLane="328349209#9_0" arrivalPos="20.69" arrivalSpeed="23.02" duration="29.00" routeLength="345.44" waitingTime="0.00" waitingCount="0" stopTime="0.00" timeLoss="7.67" rerouteNo="1" devices="tripinfo_from_south_straight_morning_peak.2 routing_from_south_straight_morning_peak.2" vType="motorcycle" speedFactor="0.93" vaporized=""/>
    <tripinfo id="from_south_left_turn_morning_peak.4" depart="28832.00" departLane="638541493#1_0" departPos="2.30" departSpeed="0.00" departDelay="0.97" arrival="28905.00" arrivalLane="638541495#2_0" arrivalPos="30.24" arrivalSpeed="6.42" duration="73.00" routeLength="503.80" waitingTime="4.00" waitingCount="1" stopTime="0.00" timeLoss="21.65" rerouteNo="1" devices="tripinfo_from_south_left_turn_morning_peak.4 routing_from_south_left_turn_morning_peak.4" vType="motorcycle" speedFactor="1.12" vaporized=""/>
    <tripinfo id="from_east_straight_morning_peak.6" depart="28819.00" departLane="1354145734#1_0" departPos="2.30" departSpeed="0.00" departDelay="10.82" arrival="28909.00" arrivalLane="638541495#1_0" arrivalPos="26.02" arrivalSpeed="4.97" duration="90.00" routeLength="629.94" waitingTime="0.00" waitingCount="0" stopTime="0.00" timeLoss="24.77" rerouteNo="1" devices="tripinfo_from_east_straight_morning_peak.6 routing_from_east_straight_morning_peak.6" vType="motorcycle" speedFactor="0.92" vaporized=""/>
    <tripinfo id="30" depart="28908.00" departLane="-37110889#1_0" departPos="5.10" departSpeed="0.00" departDelay="0.00" arrival="28911.00" arrivalLane="-37110889#1_0" arrivalPos="11.84" arrivalSpeed="5.65" duration="3.00" routeLength="6.74" waitingTime="0.00" waitingCount="0" stopTime="0.00" timeLoss="2.54" rerouteNo="1" devices="tripinfo_30 routing_30" vType="DEFAULT_VEHTYPE" speedFactor="1.15" vaporized=""/>
    <tripinfo id="from_west_left_turn_morning_peak.1" depart="28810.00" departLane="263812623#1_0" departPos="2.30" departSpeed="0.00" departDelay="4.44" arrival="28911.00" arrivalLane="328349209#9_0" arrivalPos="20.69" arrivalSpeed="30.05" duration="101.00" routeLength="677.53" waitingTime="43.00" waitingCount="1" stopTime="0.00" timeLoss="65.04" rerouteNo="1" devices="tripinfo_from_west_left_turn_morning_peak.1 routing_from_west_left_turn_morning_peak.1" vType="motorcycle" speedFactor="1.11" vaporized=""/>
    <tripinfo id="from_east_left_turn_morning_peak.3" depart="28846.00" departLane="1354145734#1_0" departPos="5.10" departSpeed="0.00" departDelay="26.89" arrival="28911.00" arrivalLane="1148421491#1_0" arrivalPos="44.65" arrivalSpeed="7.40" duration="65.00" routeLength="287.98" waitingTime="30.00" waitingCount="1" stopTime="0.00" timeLoss="46.37" rerouteNo="1" devices="tripinfo_from_east_left_turn_morning_peak.3 routing_from_east_left_turn_morning_peak.3" vType="car" speedFactor="0.92" vaporized=""/>
    <tripinfo id="from_east_straight_morning_peak.8" depart="28823.00" departLane="1354145734#1_0" departPos="2.30" departSpeed="0.00" departDelay="12.09" arrival="28913.00" arrivalLane="638541495#1_0" arrivalPos="26.02" arrivalSpeed="5.77" duration="90.00" routeLength="629.94" waitingTime="0.00" waitingCount="0" stopTime="0.00" timeLoss="22.49" rerouteNo="1" devices="tripinfo_from_east_straight_morning_peak.8 routing_from_east_straight_morning_peak.8" vType="motorcycle" speedFactor="0.89" vaporized=""/>
    <tripinfo id="from_west_straight_morning_peak.4" depart="28808.00" departLane="263812623#1_0" departPos="2.30" departSpeed="0.00" departDelay="3.23" arrival="28916.00" arrivalLane="638541497#16_0" arrivalPos="109.58" arrivalSpeed="28.14" duration="108.00" routeLength="1048.79" waitingTime="48.00" waitingCount="1" stopTime="0.00" timeLoss="57.96" rerouteNo="1" devices="tripinfo_from_west_straight_morning_peak.4 routing_from_west_straight_morning_peak.4" vType="motorcycle" speedFactor="1.05" vaporized=""/>
    <tripinfo id="1" depart="28804.00" departLane="-26284183#2_0" departPos="5.10" departSpeed="0.00" departDelay="0.40" arrival="28918.00" arrivalLane="-26284129#7_0" arrivalPos="40.68" arrivalSpeed="18.57" duration="114.00" routeLength="563.24" waitingTime="63.00" waitingCount="1" stopTime="0.00" timeLoss="84.95" rerouteNo="1" devices="tripinfo_1 routing_1" vType="DEFAULT_VEHTYPE" speedFactor="1.08" vaporized=""/>
    <tripinfo id="from_west_left_turn_morning_peak.2" depart="28824.00" departLane="263812623#1_0" departPos="2.30" departSpeed="0.00" departDelay="12.87" arrival="28918.00" arrivalLane="328349209#9_0" arrivalPos="20.69" arrivalSpeed="25.30" duration="94.00" routeLength="677.53" waitingTime="40.00" waitingCount="1" stopTime="0.00" timeLoss="55.26" rerouteNo="1" devices="tripinfo_from_west_left_turn_morning_peak.2 routing_from_west_left_turn_morning_peak.2" vType="motorcycle" speedFactor="1.01" vaporized=""/>
    <tripinfo id="from_east_left_turn_morning_peak.4" depart="28862.00" departLane="1354145734#1_0" departPos="2.30" departSpeed="0.00" departDelay="36.52" arrival="28918.00" arrivalLane="1148421491#1_0" arrivalPos="44.65" arrivalSpeed="5.33" duration="56.00" routeLength="290.78" waitingTime="16.00" waitingCount="1" stopTime="0.00" timeLoss="37.97" rerouteNo="1" devices="tripinfo_from_east_left_turn_morning_peak.4 routing_from_east_left_turn_morning_peak.4" vType="motorcycle" speedFactor="0.95" vaporized=""/>
    <tripinfo id="from_south_left_turn_morning_peak.5" depart="28839.00" departLane="638541493#1_0" departPos="2.30" departSpeed="0.00" departDelay="0.21" arrival="28918.00" arrivalLane="638541495#2_0" arrivalPos="30.24" arrivalSpeed="6.66" duration="79.00" routeLength="503.80" waitingTime="0.00" waitingCount="0" stopTime="0.00" timeLoss="18.11" rerouteNo="1" devices="tripinfo_from_south_left_turn_morning_peak.5 routing_from_south_left_turn_morning_peak.5" vType="motorcycle" speedFactor="0.94" vaporized=""/>
    <tripinfo id="from_south_left_turn_morning_peak.6" depart="28847.00" departLane="638541493#1_0" departPos="5.10" departSpeed="0.00" departDelay="0.45" arrival="28918.00" arrivalLane="638541495#2_1" arrivalPos="30.24" arrivalSpeed="8.09" duration="71.00" routeLength="501.00" waitingTime="0.00" waitingCount="0" stopTime="0.00" timeLoss="16.64" rerouteNo="1" devices="tripinfo_from_south_left_turn_morning_peak.6 routing_from_south_left_turn_morning_peak.6" vType="auto" speedFactor="1.04" vaporized=""/>
    <tripinfo id="from_west_straight_morning_peak.3" depart="28807.00" departLane="263812623#1_0" departPos="2.30" departSpeed="0.00" departDelay="3.42" arrival="28921.00" arrivalLane="638541497#16_1" arrivalPos="109.58" arrivalSpeed="25.22" duration="114.00" routeLength="1048.79" waitingTime="45.00" waitingCount="1" stopTime="0.00" timeLoss="56.77" rerouteNo="1" devices="tripinfo_from_west_straight_morning_peak.3 routing_from_west_straight_morning_peak.3" vType="motorcycle" speedFactor="0.93" vaporized=""/>
    <tripinfo id="from_west_straight_morning_peak.6" depart="28815.00" departLane="263812623#1_0" departPos="2.30" departSpeed="0.00" departDelay="7.85" arrival="28922.00" arrivalLane="638541497#16_1" arrivalPos="109.58" arrivalSpeed="29.89" duration="107.00" routeLength="1048.79" waitingTime="41.00" waitingCount="1" stopTime="0.00" timeLoss="59.36" rerouteNo="1" devices="tripinfo_from_west_straight_morning_peak.6 routing_from_west_straight_morning_peak.6" vType="motorcycle" speedFactor="1.11" vaporized=""/>