<?xml version="1.0" encoding="UTF-8"?>

<!-- generated on 2025-11-17 22:15:11 by Eclipse SUMO sumo Version 1.24.0
<sumoConfiguration xmlns:xsi="http://www.w3.org/2001/XMLSchema-instance" xsi:noNamespaceSchemaLocation="http://sumo.dlr.de/xsd/sumoConfiguration.xsd">

    <input>
        <net-file value="SUMO_Trinity_Traffic_sim/osm.net.xml.gz"/>
        <route-files value="SUMO_Trinity_Traffic_sim/mg_road.rou.xml,SUMO_Trinity_Traffic_sim/ background.rou.xml"/>
        <additional-files value="SUMO_Trinity_Traffic_sim/osm.poly.xml.gz"/>
    </input>

    <output>
        <tripinfo-output value="SUMO_Trinity_Traffic_sim/tripinfo.xml"/>
    </output>

    <time>
        <begin value="28800.0"/>
        <step-length value="1.0"/>
    </time>

    <processing>
        <ignore-route-errors value="true"/>
        <tls.actuated.jam-threshold value="30"/>
    </processing>

    <routing>
        <device.rerouting.adaptation-steps value="18"/>
        <device.rerouting.adaptation-interval value="10"/>
    </routing>

    <report>
        <verbose value="true"/>
        <no-warnings value="true"/>
        <duration-log.statistics value="true"/>
        <no-step-log value="true"/>
    </report>

    <traci_server>
        <remote-port value="52167"/>
    </traci_server>

    <random_number>
        <seed value="5"/>
    </random_number>

    <gui_only>
        <gui-settings-file value="SUMO_Trinity_Traffic_sim/osm.view.xml"/>
        <quit-on-end value="true"/>
    </gui_only>

</sumoConfiguration>
-->

<tripinfos xmlns:xsi="http://www.w3.org/2001/XMLSchema-instance" xsi:noNamespaceSchemaLocation="http://sumo.dlr.de/xsd/tripinfo_file.xsd">
    <tripinfo id="from_east_right_turn_morning_peak.0" depart="28803.00" departLane="1354145734#1_0" departPos="2.30" departSpeed="0.00" departDelay="3.00" arrival="28829.00" arrivalLane="328349209#9_1" arrivalPos="20.69" arrivalSpeed="25.67" duration="26.00" routeLength="366.20" waitingTime="0.00" waitingCount="0" stopTime="0.00" timeLoss="10.34" rerouteNo="1" devices="tripinfo_from_east_right_turn_morning_peak.0 routing_from_east_right_turn_morning_peak.0" vType="motorcycle" speedFactor="0.93" vaporized=""/>
    <tripinfo id="from_east_left_turn_morning_peak.0" depart="28802.00" departLane="1354145734#1_0" departPos="2.30" departSpeed="0.00" departDelay="2.00" arrival="28831.00" arrivalLane="1148421491#1_0" arrivalPos="44.65" arrivalSpeed="7.49" duration="29.00" routeLength="290.78" waitingTime="0.00" waitingCount="0" stopTime="0.00" timeLoss="11.99" rerouteNo="1" devices="tripinfo_from_east_left_turn_morning_peak.0 routing_from_east_left_turn_morning_peak.0" vType="motorcycle" speedFactor="1.03" vaporized=""/>
    <tripinfo id="0" depart="28800.00" departLane="169709329#5_0" departPos="5.10" departSpeed="0.00" departDelay="0.00" arrival="28834.00" arrivalLane="-1103062099#1_0" arrivalPos="7.64" arrivalSpeed="11.05" duration="34.00" routeLength="124.30" waitingTime="0.00" waitingCount="0" stopTime="0.00" timeLoss="10.56" rerouteNo="1" devices="tripinfo_0 routing_0" vType="DEFAULT_VEHTYPE" speedFactor="1.16" vaporized=""/>
    <tripinfo id="from_east_left_turn_morning_peak.1" depart="28821.00" departLane="1354145734#1_0" departPos="2.30" departSpeed="0.00" departDelay="14.63" arrival="28846.00" arrivalLane="1148421491#1_0" arrivalPos="44.65" arrivalSpeed="7.43" duration="25.00" routeLength="290.78" waitingTime="0.00" waitingCount="0" stopTime="0.00" timeLoss="10.18" rerouteNo="1" devices="tripinfo_from_east_left_turn_morning_peak.1 routing_from_east_left_turn_morning_peak.1" vType="motorcycle" speedFactor="1.14" vaporized=""/>
    <tripinfo id="3" depart="28811.00" departLane="491106117#3_0" departPos="5.10" departSpeed="0.00" departDelay="0.20" arrival="28849.00" arrivalLane="-132907566#1_0" arrivalPos="45.08" arrivalSpeed="13.37" duration="38.00" routeLength="342.86" waitingTime="0.00" waitingCount="0" stopTime="0.00" timeLoss="12.55" rerouteNo="1" devices="tripinfo_3 routing_3" vType="DEFAULT_VEHTYPE" speedFactor="1.11" vaporized=""/>
    <tripinfo id="from_south_right_turn_morning_peak.0" depart="28804.00" departLane="638541493#1_0" departPos="5.10" departSpeed="0.00" departDelay="4.00" arrival="28858.00" arrivalLane="638541497#1_1" arrivalPos="50.87" arrivalSpeed="19.09" duration="54.00" routeLength="159.24" waitingTime="31.00" waitingCount="1" stopTime="0.00" timeLoss="40.78" rerouteNo="1" devices="tripinfo_from_south_right_turn_morning_peak.0 routing_from_south_right_turn_morning_peak.0" vType="car" speedFactor="0.98" vaporized=""/>
    <tripinfo id="from_west_straight_morning_peak.0" depart="28800.00" departLane="263812623#1_0" departPos="2.30" departSpeed="0.00" departDelay="0.00" arrival="28859.00" arrivalLane="638541497#16_0" arrivalPos="109.58" arrivalSpeed="26.46" duration="59.00" routeLength="1048.79" waitingTime="0.00" waitingCount="0" stopTime="0.00" timeLoss="5.62" rerouteNo="1" devices="tripinfo_from_west_straight_morning_peak.0 routing_from_west_straight_morning_peak.0" vType="motorcycle" speedFactor="0.99" vaporized=""/>
    <tripinfo id="from_west_left_turn_morning_peak.0" depart="28801.00" departLane="263812623#1_0" departPos="12.10" departSpeed="0.00" departDelay="1.00" arrival="28859.00" arrivalLane="328349209#9_0" arrivalPos="20.69" arrivalSpeed="20.26" duration="58.00" routeLength="667.73" waitingTime="0.00" waitingCount="0" stopTime="0.00" timeLoss="19.12" rerouteNo="1" devices="tripinfo_from_west_left_turn_morning_peak.0 routing_from_west_left_turn_morning_peak.0" vType="bus" speedFactor="1.00" vaporized=""/>
    <tripinfo id="from_south_right_turn_morning_peak.1" depart="28809.00" departLane="638541493#1_0" departPos="2.30" departSpeed="0.00" departDelay="1.24" arrival="28860.00" arrivalLane="638541497#1_1" arrivalPos="50.87" arrivalSpeed="25.17" duration="51.00" routeLength="162.04" waitingTime="28.00" waitingCount="1" stopTime="0.00" timeLoss="36.92" rerouteNo="1" devices="tripinfo_from_south_right_turn_morning_peak.1 routing_from_south_right_turn_morning_peak.1" vType="motorcycle" speedFactor="0.96" vaporized=""/>
    <tripinfo id="from_south_left_turn_morning_peak.0" depart="28801.00" departLane="638541493#1_0" departPos="5.10" departSpeed="0.00" departDelay="1.00" arrival="28861.00" arrivalLane="638541495#2_0" arrivalPos="30.24" arrivalSpeed="8.12" duration="60.00" routeLength="501.00" waitingTime="0.00" waitingCount="0" stopTime="0.00" timeLoss="8.73" rerouteNo="1" devices="tripinfo_from_south_left_turn_morning_peak.0 routing_from_south_left_turn_morning_peak.0" vType="auto" speedFactor="1.11" vaporized=""/>
    <tripinfo id="from_south_right_turn_morning_peak.2" depart="28818.00" departLane="638541493#1_0" departPos="5.10" departSpeed="0.00" departDelay="2.48" arrival="28862.00" arrivalLane="638541497#1_1" arrivalPos="50.87" arrivalSpeed="19.29" duration="44.00" routeLength="159.24" waitingTime="21.00" waitingCount="1" stopTime="0.00" timeLoss="33.21" rerouteNo="1" devices="tripinfo_from_south_right_turn_morning_peak.2 routing_from_south_right_turn_morning_peak.2" vType="car" speedFactor="1.18" vaporized=""/>
    <tripinfo id="from_south_straight_morning_peak.0" depart="28800.00" departLane="638541493#1_0" departPos="2.30" departSpeed="0.00" departDelay="0.00" arrival="28864.00" arrivalLane="328349209#9_0" arrivalPos="20.69" arrivalSpeed="25.11" duration="64.00" routeLength="345.44" waitingTime="34.00" waitingCount="1" stopTime="0.00" timeLoss="42.65" rerouteNo="1" devices="tripinfo_from_south_straight_morning_peak.0 routing_from_south_straight_morning_peak.0" vType="motorcycle" speedFactor="0.93" vaporized=""/>
    <tripinfo id="from_south_right_turn_morning_peak.3" depart="28826.00" departLane="638541493#1_0" departPos="2.30" departSpeed="0.00" departDelay="2.73" arrival="28864.00" arrivalLane="638541497#1_1" arrivalPos="50.87" arrivalSpeed="26.41" duration="38.00" routeLength="162.04" waitingTime="17.00" waitingCount="1" stopTime="0.00" timeLoss="25.00" rerouteNo="1" devices="tripinfo_from_south_right_turn_morning_peak.3 routing_from_south_right_turn_morning_peak.3" vType="motorcycle" speedFactor="1.04" vaporized=""/>
    <tripinfo id="from_west_straight_morning_peak.1" depart="28805.00" departLane="263812623#1_0" departPos="5.10" departSpeed="0.00" departDelay="3.81" arrival="28866.00" arrivalLane="638541497#16_1" arrivalPos="109.58" arrivalSpeed="26.99" duration="61.00" routeLength="1045.99" waitingTime="0.00" waitingCount="0" stopTime="0.00" timeLoss="6.73" rerouteNo="1" devices="tripinfo_from_west_straight_morning_peak.1 routing_from_west_straight_morning_peak.1" vType="car" speedFactor="0.97" vaporized=""/>
    <tripinfo id="from_east_right_turn_morning_peak.1" depart="28823.00" departLane="1354145734#1_0" departPos="12.10" departSpeed="0.00" departDelay="16.63" arrival="28869.00" arrivalLane="328349209#9_1" arrivalPos="20.69" arrivalSpeed="19.48" duration="46.00" routeLength="356.40" waitingTime="4.00" waitingCount="1" stopTime="0.00" timeLoss="31.41" rerouteNo="1" devices="tripinfo_from_east_right_turn_morning_peak.1 routing_from_east_right_turn_morning_peak.1" vType="bus" speedFactor="1.00" vaporized=""/>
    <tripinfo id="from_south_right_turn_morning_peak.4" depart="28834.00" departLane="638541493#1_0" departPos="2.30" departSpeed="0.00" departDelay="2.97" arrival="28869.00" arrivalLane="638541497#1_1" arrivalPos="50.87" arrivalSpeed="23.51" duration="35.00" routeLength="162.04" waitingTime="8.00" waitingCount="3" stopTime="0.00" timeLoss="20.52" rerouteNo="1" devices="tripinfo_from_south_right_turn_morning_peak.4 routing_from_south_right_turn_morning_peak.4" vType="motorcycle" speedFactor="0.90" vaporized=""/>
    <tripinfo id="from_south_right_turn_morning_peak.5" depart="28841.00" departLane="638541493#1_0" departPos="5.10" departSpeed="0.00" departDelay="2.21" arrival="28871.00" arrivalLane="638541497#1_1" arrivalPos="50.87" arrivalSpeed="20.01" duration="30.00" routeLength="159.24" waitingTime="3.00" waitingCount="1" stopTime="0.00" timeLoss="17.29" rerouteNo="1" devices="tripinfo_from_south_right_turn_morning_peak.5 routing_from_south_right_turn_morning_peak.5" vType="auto" speedFactor="0.96" vaporized=""/>
    <tripinfo id="from_south_right_turn_morning_peak.6" depart="28849.00" departLane="638541493#1_0" departPos="5.10" departSpeed="0.00" departDelay="2.45" arrival="28873.00" arrivalLane="638541497#1_1" arrivalPos="50.87" arrivalSpeed="19.71" duration="24.00" routeLength="159.24" waitingTime="0.00" waitingCount="0" stopTime="0.00" timeLoss="12.56" rerouteNo="1" devices="tripinfo_from_south_right_turn_morning_peak.6 routing_from_south_right_turn_morning_peak.6" vType="auto" speedFactor="1.09" vaporized=""/>
    <tripinfo id="from_east_straight_morning_peak.0" depart="28800.00" departLane="1354145734#1_0" departPos="5.10" departSpeed="0.00" departDelay="0.00" arrival="28874.00" arrivalLane="638541495#1_0" arrivalPos="26.02" arrivalSpeed="7.17" duration="74.00" routeLength="627.14" waitingTime="0.00" waitingCount="0" stopTime="0.00" timeLoss="12.63" rerouteNo="1" devices="tripinfo_from_east_straight_morning_peak.0 routing_from_east_straight_morning_peak.0" vType="auto" speedFactor="0.98" vaporized=""/>
    <tripinfo id="7" depart="28826.00" departLane="169711262#3_0" departPos="5.10" departSpeed="0.00" departDelay="0.80" arrival="28874.00" arrivalLane="132907562#1_0" arrivalPos="14.25" arrivalSpeed="12.40" duration="48.00" routeLength="573.45" waitingTime="0.00" waitingCount="0" stopTime="0.00" timeLoss="11.61" rerouteNo="1" devices="tripinfo_7 routing_7" vType="DEFAULT_VEHTYPE" speedFactor="1.20" vaporized=""/>
    <tripinfo id="from_south_left_turn_morning_peak.1" depart="28808.00" departLane="638541493#1_0" departPos="2.30" departSpeed="0.00" departDelay="0.24" arrival="28874.00" arrivalLane="638541495#2_0" arrivalPos="30.24" arrivalSpeed="7.09" duration="66.00" routeLength="503.80" waitingTime="0.00" waitingCount="0" stopTime="0.00" timeLoss="12.47" rerouteNo="1" devices="tripinfo_from_south_left_turn_morning_peak.1 routing_from_south_left_turn_morning_peak.1" vType="motorcycle" speedFactor="1.07" vaporized=""/>
    <tripinfo id="from_east_right_turn_morning_peak.2" depart="28839.00" departLane="1354145734#1_0" departPos="2.30" departSpeed="0.00" departDelay="26.26" arrival="28877.00" arrivalLane="328349209#9_1" arrivalPos="20.69" arrivalSpeed="27.08" duration="38.00" routeLength="366.20" waitingTime="0.00" waitingCount="0" stopTime="0.00" timeLoss="23.34" rerouteNo="1" devices="tripinfo_from_east_right_turn_morning_peak.2 routing_from_east_right_turn_morning_peak.2" vType="motorcycle" speedFactor="1.01" vaporized=""/>
    <tripinfo id="from_south_right_turn_morning_peak.7" depart="28858.00" departLane="638541493#1_0" departPos="12.10" departSpeed="0.00" departDelay="3.69" arrival="28877.00" arrivalLane="638541497#1_1" arrivalPos="50.87" arrivalSpeed="15.02" duration="19.00" routeLength="152.24" waitingTime="0.00" waitingCount="0" stopTime="0.00" timeLoss="7.32" rerouteNo="1" devices="tripinfo_from_south_right_turn_morning_peak.7 routing_from_south_right_turn_morning_peak.7" vType="bus" speedFactor="1.00" vaporized=""/>
    <tripinfo id="from_east_straight_morning_peak.1" depart="28804.00" departLane="1354145734#1_0" departPos="2.30" departSpeed="0.00" departDelay="2.64" arrival="28878.00" arrivalLane="638541495#1_0" arrivalPos="26.02" arrivalSpeed="8.18" duration="74.00" routeLength="629.94" waitingTime="1.00" waitingCount="1" stopTime="0.00" timeLoss="18.99" rerouteNo="1" devices="tripinfo_from_east_straight_morning_peak.1 routing_from_east_straight_morning_peak.1" vType="motorcycle" speedFactor="1.10" vaporized=""/>
    <tripinfo id="10" depart="28836.00" departLane="36257667#9_0" departPos="5.10" departSpeed="0.00" departDelay="0.00" arrival="28881.00" arrivalLane="213087089_0" arrivalPos="91.98" arrivalSpeed="13.35" duration="45.00" routeLength="437.32" waitingTime="0.00" waitingCount="0" stopTime="0.00" timeLoss="11.78" rerouteNo="1" devices="tripinfo_10 routing_10" vType="DEFAULT_VEHTYPE" speedFactor="1.04" vaporized=""/>
    <tripinfo id="from_east_straight_morning_peak.2" depart="28807.00" departLane="1354145734#1_0" departPos="12.10" departSpeed="0.00" departDelay="4.27" arrival="28882.00" arrivalLane="638541495#1_0" arrivalPos="26.02" arrivalSpeed="7.97" duration="75.00" routeLength="620.14" waitingTime="0.00" waitingCount="0" stopTime="0.00" timeLoss="15.14" rerouteNo="1" devices="tripinfo_from_east_straight_morning_peak.2 routing_from_east_straight_morning_peak.2" vType="bus" speedFactor="1.00" vaporized=""/>
    <tripinfo id="from_south_straight_morning_peak.1" depart="28835.00" departLane="638541493#1_0" departPos="7.20" departSpeed="0.00" departDelay="0.05" arrival="28883.00" arrivalLane="328349209#9_0" arrivalPos="20.69" arrivalSpeed="20.69" duration="48.00" routeLength="340.54" waitingTime="6.00" waitingCount="1" stopTime="0.00" timeLoss="28.86" rerouteNo="1" devices="tripinfo_from_south_straight_morning_peak.1 routing_from_south_straight_morning_peak.1" vType="truck" speedFactor="0.99" vaporized=""/>
    <tripinfo id="from_south_right_turn_morning_peak.8" depart="28866.00" departLane="638541493#1_0" departPos="5.10" departSpeed="0.00" departDelay="3.94" arrival="28884.00" arrivalLane="638541497#1_1" arrivalPos="50.87" arrivalSpeed="19.00" duration="18.00" routeLength="159.24" waitingTime="0.00" waitingCount="0" stopTime="0.00" timeLoss="4.37" rerouteNo="1" devices="tripinfo_from_south_right_turn_morning_peak.8 routing_from_south_right_turn_morning_peak.8" vType="car" speedFactor="0.92" vaporized=""/>
    <tripinfo id="from_east_straight_morning_peak.4" depart="28814.00" departLane="1354145734#1_0" departPos="5.10" departSpeed="0.00" departDelay="8.54" arrival="28885.00" arrivalLane="638541495#1_0" arrivalPos="26.02" arrivalSpeed="8.85" duration="71.00" routeLength="627.14" waitingTime="0.00" waitingCount="0" stopTime="0.00" timeLoss="17.78" rerouteNo="1" devices="tripinfo_from_east_straight_morning_peak.4 routing_from_east_straight_morning_peak.4" vType="car" speedFactor="1.14" vaporized=""/>
    <tripinfo id="from_east_straight_morning_peak.5" depart="28818.00" departLane="1354145734#1_0" departPos="5.10" departSpeed="0.00" departDelay="11.18" arrival="28888.00" arrivalLane="638541495#1_0" arrivalPos="26.02" arrivalSpeed="8.00" duration="70.00" routeLength="627.14" waitingTime="0.00" waitingCount="0" stopTime="0.00" timeLoss="12.85" rerouteNo="1" devices="tripinfo_from_east_straight_morning_peak.5 routing_from_east_straight_morning_peak.5" vType="car" speedFactor="1.06" vaporized=""/>
    <tripinfo id="from_east_straight_morning_peak.3" depart="28811.00" departLane="1354145734#1_0" departPos="5.10" departSpeed="0.00" departDelay="6.91" arrival="28889.00" arrivalLane="638541495#1_0" arrivalPos="26.02" arrivalSpeed="7.01" duration="78.00" routeLength="627.14" waitingTime="0.00" waitingCount="0" stopTime="0.00" timeLoss="15.87" rerouteNo="1" devices="tripinfo_from_east_straight_morning_peak.3 routing_from_east_straight_morning_peak.3" vType="auto" speedFactor="0.97" vaporized=""/>
    <tripinfo id="from_south_right_turn_morning_peak.9" depart="28873.00" departLane="638541493#1_0" departPos="2.30" departSpeed="0.00" departDelay="3.18" arrival="28891.00" arrivalLane="638541497#1_1" arrivalPos="50.87" arrivalSpeed="24.74" duration="18.00" routeLength="162.04" waitingTime="0.00" waitingCount="0" stopTime="0.00" timeLoss="5.25" rerouteNo="1" devices="tripinfo_from_south_right_turn_morning_peak.9 routing_from_south_right_turn_morning_peak.9" vType="motorcycle" speedFactor="1.01" vaporized=""/>
    <tripinfo id="11" depart="28840.00" departLane="-484510040#17_0" departPos="5.10" departSpeed="0.00" departDelay="0.40" arrival="28893.00" arrivalLane="-169711276#0_0" arrivalPos="9.15" arrivalSpeed="10.48" duration="53.00" routeLength="610.46" waitingTime="0.00" waitingCount="0" stopTime="0.00" timeLoss="22.71" rerouteNo="1" devices="tripinfo_11 routing_11" vType="DEFAULT_VEHTYPE" speedFactor="1.25" vaporized=""/>
    <tripinfo id="from_south_straight_morning_peak.2" depart="28870.00" departLane="638541493#1_0" departPos="2.30" departSpeed="0.00" departDelay="0.10" arrival="28894.00" arrivalLane="328349209#9_0" arrivalPos="20.69" arrivalSpeed="29.18" duration="24.00" routeLength="345.44" waitingTime="0.00" waitingCount="0" stopTime="0.00" timeLoss="6.61" rerouteNo="1" devices="tripinfo_from_south_straight_morning_peak.2 routing_from_south_straight_morning_peak.2" vType="motorcycle" speedFactor="1.09" vaporized=""/>
    <tripinfo id="2" depart="28808.00" departLane="26284129#7_0" departPos="5.10" departSpeed="0.00" departDelay="0.80" arrival="28895.00" arrivalLane="213042766#5_0" arrivalPos="50.03" arrivalSpeed="13.51" duration="87.00" routeLength="1012.11" waitingTime="4.00" waitingCount="1" stopTime="0.00" timeLoss="23.15" rerouteNo="1" devices="tripinfo_2 routing_2" vType="DEFAULT_VEHTYPE" speedFactor="0.99" vaporized=""/>
    <tripinfo id="from_south_left_turn_morning_peak.4" depart="28832.00" departLane="638541493#1_0" departPos="5.10" departSpeed="0.00" departDelay="0.97" arrival="28904.00" arrivalLane="638541495#2_0" arrivalPos="30.24" arrivalSpeed="8.05" duration="72.00" routeLength="501.00" waitingTime="1.00" waitingCount="1" stopTime="0.00" timeLoss="16.84" rerouteNo="1" devices="tripinfo_from_south_left_turn_morning_peak.4 routing_from_south_left_turn_morning_peak.4" vType="auto" speedFactor="1.03" vaporized=""/>
    <tripinfo id="from_east_left_turn_morning_peak.2" depart="28836.00" departLane="1354145734#1_0" departPos="5.10" departSpeed="0.00" departDelay="23.26" arrival="28907.00" arrivalLane="1148421491#1_0" arrivalPos="44.65" arrivalSpeed="6.31" duration="71.00" routeLength="287.98" waitingTime="25.00" waitingCount="1" stopTime="0.00" timeLoss="54.12" rerouteNo="1" devices="tripinfo_from_east_left_turn_morning_peak.2 routing_from_east_left_turn_morning_peak.2" vType="auto" speedFactor="0.99" vaporized=""/>
    <tripinfo id="from_south_left_turn_morning_peak.2" depart="28816.00" departLane="638541493#1_0" departPos="2.30" departSpeed="0.00" departDelay="0.48" arrival="28908.00" arrivalLane="638541495#2_0" arrivalPos="30.24" arrivalSpeed="5.58" duration="92.00" routeLength="503.80" waitingTime="14.00" waitingCount="1" stopTime="0.00" timeLoss="33.28" rerouteNo="1" devices="tripinfo_from_south_left_turn_morning_peak.2 routing_from_south_left_turn_morning_peak.2" vType="motorcycle" speedFactor="0.98" vaporized=""/>
    <tripinfo id="1" depart="28804.00" departLane="-26284183#2_0" departPos="5.10" departSpeed="0.00" departDelay="0.40" arrival="28910.00" arrivalLane="-26284129#7_0" arrivalPos="40.68" arrivalSpeed="18.34" duration="106.00" routeLength="563.24" waitingTime="54.00" waitingCount="1" stopTime="0.00" timeLoss="77.91" rerouteNo="1" devices="tripinfo_1 routing_1" vType="DEFAULT_VEHTYPE" speedFactor="1.12" vaporized=""/>
    <tripinfo id="30" depart="28908.00" departLane="-37110889#1_0" departPos="5.10" departSpeed="0.00" departDelay="0.00" arrival="28910.00" arrivalLane="-37110889#1_0" arrivalPos="11.84" arrivalSpeed="4.94" duration="2.00" routeLength="6.74" waitingTime="0.00" waitingCount="0" stopTime="0.00" timeLoss="1.64" rerouteNo="1" devices="tripinfo_30 routing_30" vType="DEFAULT_VEHTYPE" speedFactor="0.94" vaporized=""/>
    <tripinfo id="from_south_left_turn_morning_peak.3" depart="28824.00" departLane="638541493#1_0" departPos="2.30" departSpeed="0.00" departDelay="0.73" arrival="28910.00" arrivalLane="638541495#2_0" arrivalPos="30.24" arrivalSpeed="6.82" duration="86.00" routeLength="503.80" waitingTime="7.00" waitingCount="1" stopTime="0.00" timeLoss="27.88" rerouteNo="1" devices="tripinfo_from_south_left_turn_morning_peak.3 routing_from_south_left_turn_morning_peak.3" vType="motorcycle" speedFactor="0.98" vaporized=""/>
    <tripinfo id="from_west_left_turn_morning_peak.1" depart="28812.00" departLane="263812623#1_0" departPos="2.30" departSpeed="0.00" departDelay="6.44" arrival="28913.00" arrivalLane="328349209#9_0" arrivalPos="20.69" arrivalSpeed="26.97" duration="101.00" routeLength="677.53" waitingTime="42.00" waitingCount="1" stopTime="0.00" timeLoss="60.38" rerouteNo="1" devices="tripinfo_from_west_left_turn_morning_peak.1 routing_from_west_left_turn_morning_peak.1" vType="motorcycle" speedFactor="0.98" vaporized=""/>
    <tripinfo id="12" depart="28844.00" departLane="638541497#8_0" departPos="5.10" departSpeed="0.00" departDelay="0.80" arrival="28917.00" arrivalLane="-553250634#1_0" arrivalPos="19.11" arrivalSpeed="8.89" duration="73.00" routeLength="630.48" waitingTime="23.00" waitingCount="1" stopTime="0.00" timeLoss="46.18" rerouteNo="1" devices="tripinfo_12 routing_12" vType="DEFAULT_VEHTYPE" speedFactor="1.01" vaporized=""/>
    <tripinfo id="from_west_straight_morning_peak.4" depart="28808.00" departLane="263812623#1_0" departPos="2.30" departSpeed="0.00" departDelay="3.23" arrival="28917.00" arrivalLane="638541497#16_0" arrivalPos="109.58" arrivalSpeed="26.82" duration="109.00" routeLength="1048.79" waitingTime="45.00" waitingCount="1" stopTime="0.00" timeLoss="56.94" rerouteNo="1" devices="tripinfo_from_west_straight_morning_peak.4 routing_from_west_straight_morning_peak.4" vType="motorcycle" speedFactor="1.01" vaporized=""/>
    <tripinfo id="from_south_left_turn_morning_peak.5" depart="28839.00" departLane="638541493#1_0" departPos="2.30" departSpeed="0.00" departDelay="0.21" arrival="28918.00" arrivalLane="638541495#2_0" arrivalPos="30.24" arrivalSpeed="7.26" duration="79.00" routeLength="503.80" waitingTime="0.00" waitingCount="0" stopTime="0.00" timeLoss="18.30" rerouteNo="1" devices="tripinfo_from_south_left_turn_morning_peak.5 routing_from_south_left_turn_morning_peak.5" vType="motorcycle" speedFactor="0.95" vaporized=""/>
    <tripinfo id="from_east_left_turn_morning_peak.3" depart="28853.00" departLane="1354145734#1_0" departPos="5.10" departSpeed="0.00" departDelay="33.89" arrival="28919.00" arrivalLane="1148421491#1_0" arrivalPos="44.65" arrivalSpeed="7.77" duration="66.00" routeLength="287.98" waitingTime="12.00" waitingCount="1" stopTime="0.00" timeLoss="48.77" rerouteNo="1" devices="tripinfo_from_east_left_turn_morning_peak.3 routing_from_east_left_turn_morning_peak.3" vType="auto" speedFactor="0.97" vaporized=""/>
    <tripinfo id="from_west_straight_morning_peak.3" depart="28807.00" departLane="263812623#1_0" departPos="2.30" departSpeed="0.00" departDelay="3.42" arrival="28921.00" arrivalLane="638541497#16_1" arrivalPos="109.58" arrivalSpeed="24.41" duration="114.00" routeLength="1048.79" waitingTime="43.00" waitingCount="1" stopTime="0.00" timeLoss="57.96" rerouteNo="1" devices="tripinfo_from_west_straight_morning_peak.3 routing_from_west_straight_morning_peak.3" vType="motorcycle" speedFactor="0.93" vaporized=""/>
    <tripinfo id="from_west_left_turn_morning_peak.2" depart="28823.00" departLane="263812623#1_0" departPos="5.10" departSpeed="0.00" departDelay="11.87" arrival="28923.00" arrivalLane="328349209#9_0" arrivalPos="20.69" arrivalSpeed="28.53" duration="100.00" routeLength="674.73" waitingTime="36.00" waitingCount="1" stopTime="0.00" timeLoss="62.36" rerouteNo="1" devices="tripinfo_from_west_left_turn_morning_peak.2 routing_from_west_left_turn_morning_peak.2" vType="auto" speedFactor="1.04" vaporized=""/>
    <tripinfo id="from_west_straight_morning_peak.2" depart="28806.00" departLane="263812623#1_0" departPos="5.10" departSpeed="0.00" departDelay="3.62" arrival="28924.00" arrivalLane="638541497#16_1" arrivalPos="109.58" arrivalSpeed="28.45" duration="118.00" routeLength="1045.99" waitingTime="44.00" waitingCount="2" stopTime="0.00" timeLoss="66.77" rerouteNo="1" devices="tripinfo_from_west_straight_morning_peak.2 routing_from_west_straight_morning_peak.2" vType="auto" speedFactor="1.03" vaporized=""/>
    <tripinfo id="from_west_straight_morning_peak.5" depart="28811.00" departLane="263812623#1_0" departPos="5.10" departSpeed="0.00" departDelay="5.04" arrival="28924.00" arrivalLane="638541497#16_0" arrivalPos="109.58" arrivalSpeed="28.59" duration="113.00" routeLength="1045.99" waitingTime="43.00" waitingCount="1" stopTime="0.00" timeLoss="62.37" rerouteNo="1" devices="tripinfo_from_west_straight_morning_peak.5 routing_from_west_straight_morning_peak.5" vType="auto" speedFactor="1.04" vaporized=""/>
    <tripinfo id="from_west_straight_morning_peak.9" depart="28820.00" departLane="263812623#1_0" departPos="2.30" departSpeed="0.00" departDelay="9.27" arrival="28925.00" arrivalLane="638541497#16_0" arrivalPos="109.58" arrivalSpeed="29.53" duration="105.00" routeLength="1048.79" waitingTime="38.00" waitingCount="2" stopTime="0.00" timeLoss="56.43" rerouteNo="1" devices="tripinfo_from_west_straight_morning_peak.9 routing_from_west_straight_morning_peak.9" vType="motorcycle" speedFactor="1.08" vaporized=""/>
    <tripinfo id="from_south_left_turn_morning_peak.8" depart="28863.00" departLane="638541493#1_0" departPos="5.10" departSpeed="0.00" departDelay="0.94" arrival="28925.00" arrivalLane="638541495#2_1" arrivalPos="30.24" arrivalSpeed="8.27" duration="62.00" routeLength="501.00" waitingTime="0.00" waitingCount="0" stopTime="0.00" timeLoss="8.17" rerouteNo="1" devices="tripinfo_from_south_left_turn_morning_peak.8 routing_from_south_left_turn_morning_peak.8" vType="auto" speedFactor="1.07" vaporized=""/>
    <tripinfo id="from_west_left_turn_morning_peak.3" depart="28832.00" departLane="263812623#1_0" departPos="5.10" departSpeed="0.00" departDelay="15.31" arrival="28926.00" arrivalLane="328349209#9_0" arrivalPos="20.69" arrivalSpeed="27.79" duration="94.00" routeLength="674.73" waitingTime="30.00" waitingCount="1" stopTime="0.00" timeLoss="56.09" rerouteNo="1" devices="tripinfo_from_west_left_turn_morning_peak.3 routing_from_west_left_turn_morning_peak.3" vType="auto" speedFactor="1.03" vaporized=""/>
    <tripinfo id="from_east_left_turn_morning_peak.6" depart="28898.00" departLane="1354145734#1_0" departPos="5.10" departSpeed="0.00" departDelay="59.77" arrival="28926.00" arrivalLane="1148421491#1_0" arrivalPos="44.65" arrivalSpeed="7.73" duration="28.00" routeLength="287.98" waitingTime="0.00" waitingCount="0" stopTime="0.00" timeLoss="10.82" rerouteNo="1" devices="tripinfo_from_east_left_turn_morning_peak.6 routing_from_east_left_turn_morning_peak.6" vType="car" speedFactor="0.98" vaporized=""/>
    <tripinfo id="from_south_left_turn_morning_peak.7" depart="28855.00" departLane="638541493#1_0" departPos="2.30" departSpeed="0.00" departDelay="0.69" arrival="28926.00" arrivalLane="638541495#2_0" arrivalPos="30.24" arrivalSpeed="8.44" duration="71.00" routeLength="503.80" waitingTime="0.00" waitingCount="0" stopTime="0.00" timeLoss="15.79" rerouteNo="1" devices="tripinfo_from_south_left_turn_morning_peak.7 routing_from_south_left_turn_morning_peak.7" vType="motorcycle" speedFactor="1.03" vaporized=""/>
    <tripinfo id="from_west_straight_morning_peak.10" depart="28821.00" departLane="263812623#1_0" departPos="2.30" departSpeed="0.00" departDelay="9.08" arrival="28927.00" arrivalLane="638541497#16_1" arrivalPos="109.58" arrivalSpeed="26.53" duration="106.00" routeLength="1048.79" waitingTime="39.00" waitingCount="1" stopTime="0.00" timeLoss="55.84" rerouteNo="1" devices="tripinfo_from_west_straight_morning_peak.10 routing_from_west_straight_morning_peak.10" vType="motorcycle" speedFactor="1.05" vaporized=""/>
    <tripinfo id="from_west_straight_morning_peak.11" depart="28826.00" departLane="263812623#1_0" departPos="2.30" departSpeed="0.00" departDelay="12.89" arrival="28927.00" arrivalLane="638541497#16_0" arrivalPos="109.58" arrivalSpeed="28.65" duration="101.00" routeLength="1048.79" waitingTime="37.00" waitingCount="1" stopTime="0.00" timeLoss="53.92" rerouteNo="1" devices="tripinfo_from_west_straight_morning_peak.11 routing_from_west_straight_morning_peak.11" vType="motorcycle" speedFactor="1.13" vaporized=""/>