<?xml version="1.0" encoding="UTF-8"?>

<!-- generated on 2025-11-14 21:02:12 by Eclipse SUMO sumo Version 1.24.0
<sumoConfiguration xmlns:xsi="http://www.w3.org/2001/XMLSchema-instance" xsi:noNamespaceSchemaLocation="http://sumo.dlr.de/xsd/sumoConfiguration.xsd">

    <input>
        <net-file value="SUMO_Trinity_Traffic_sim/osm.net.xml.gz"/>
        <route-files value="SUMO_Trinity_Traffic_sim/mg_road.rou.xml,SUMO_Trinity_Traffic_sim/ background.rou.xml"/>
        <additional-files value="SUMO_Trinity_Traffic_sim/osm.poly.xml.gz"/>
    </input>

    <output>
        <tripinfo-output value="SUMO_Trinity_Traffic_sim/tripinfo.xml"/>
    </output>

    <time>
        <begin value="28800.0"/>
        <step-length value="1.0"/>
    </time>

    <processing>
        <ignore-route-errors value="true"/>
        <tls.actuated.jam-threshold value="30"/>
    </processing>

    <routing>
        <device.rerouting.adaptation-steps value="18"/>
        <device.rerouting.adaptation-interval value="10"/>
    </routing>

    <report>
        <verbose value="true"/>
        <no-warnings value="true"/>
        <duration-log.statistics value="true"/>
        <no-step-log value="true"/>
    </report>

    <traci_server>
        <remote-port value="62780"/>
    </traci_server>

    <random_number>
        <seed value="3"/>
    </random_number>

    <gui_only>
        <gui-settings-file value="SUMO_Trinity_Traffic_sim/osm.view.xml"/>
        <quit-on-end value="true"/>
    </gui_only>

</sumoConfiguration>
-->

<tripinfos xmlns:xsi="http://www.w3.org/2001/XMLSchema-instance" xsi:noNamespaceSchemaLocation="http://sumo.dlr.de/xsd/tripinfo_file.xsd">
    <tripinfo id="from_east_left_turn_morning_peak.0" depart="28801.00" departLane="1354145734#1_0" departPos="2.30" departSpeed="0.00" departDelay="1.00" arrival="28824.00" arrivalLane="1148421491#1_0" arrivalPos="44.65" arrivalSpeed="9.02" duration="23.00" routeLength="290.78" waitingTime="0.00" waitingCount="0" stopTime="0.00" timeLoss="8.15" rerouteNo="1" devices="tripinfo_from_east_left_turn_morning_peak.0 routing_from_east_left_turn_morning_peak.0" vType="motorcycle" speedFactor="1.15" vaporized=""/>
    <tripinfo id="0" depart="28800.00" departLane="169709329#5_0" departPos="5.10" departSpeed="0.00" departDelay="0.00" arrival="28839.00" arrivalLane="-1103062099#1_0" arrivalPos="7.64" arrivalSpeed="12.29" duration="39.00" routeLength="124.30" waitingTime="0.00" waitingCount="0" stopTime="0.00" timeLoss="9.74" rerouteNo="1" devices="tripinfo_0 routing_0" vType="DEFAULT_VEHTYPE" speedFactor="0.92" vaporized=""/>
    <tripinfo id="from_east_right_turn_morning_peak.0" depart="28804.00" departLane="1354145734#1_0" departPos="12.10" departSpeed="0.00" departDelay="4.00" arrival="28841.00" arrivalLane="328349209#9_1" arrivalPos="20.69" arrivalSpeed="20.10" duration="37.00" routeLength="356.40" waitingTime="0.00" waitingCount="0" stopTime="0.00" timeLoss="23.01" rerouteNo="1" devices="tripinfo_from_east_right_turn_morning_peak.0 routing_from_east_right_turn_morning_peak.0" vType="bus" speedFactor="1.00" vaporized=""/>
    <tripinfo id="from_west_left_turn_morning_peak.0" depart="28801.00" departLane="263812623#1_0" departPos="2.30" departSpeed="0.00" departDelay="1.00" arrival="28848.00" arrivalLane="328349209#9_0" arrivalPos="20.69" arrivalSpeed="28.78" duration="47.00" routeLength="677.53" waitingTime="0.00" waitingCount="0" stopTime="0.00" timeLoss="9.88" rerouteNo="1" devices="tripinfo_from_west_left_turn_morning_peak.0 routing_from_west_left_turn_morning_peak.0" vType="motorcycle" speedFactor="1.06" vaporized=""/>
    <tripinfo id="from_east_right_turn_morning_peak.1" depart="28822.00" departLane="1354145734#1_0" departPos="2.30" departSpeed="0.00" departDelay="15.63" arrival="28850.00" arrivalLane="328349209#9_1" arrivalPos="20.69" arrivalSpeed="28.13" duration="28.00" routeLength="366.20" waitingTime="0.00" waitingCount="0" stopTime="0.00" timeLoss="13.12" rerouteNo="1" devices="tripinfo_from_east_right_turn_morning_peak.1 routing_from_east_right_turn_morning_peak.1" vType="motorcycle" speedFactor="1.03" vaporized=""/>
    <tripinfo id="3" depart="28811.00" departLane="491106117#3_0" departPos="5.10" departSpeed="0.00" departDelay="0.20" arrival="28853.00" arrivalLane="-132907566#1_0" arrivalPos="45.08" arrivalSpeed="11.62" duration="42.00" routeLength="342.86" waitingTime="0.00" waitingCount="0" stopTime="0.00" timeLoss="11.58" rerouteNo="1" devices="tripinfo_3 routing_3" vType="DEFAULT_VEHTYPE" speedFactor="0.91" vaporized=""/>
    <tripinfo id="from_east_left_turn_morning_peak.1" depart="28820.00" departLane="1354145734#1_0" departPos="5.10" departSpeed="0.00" departDelay="13.63" arrival="28853.00" arrivalLane="1148421491#1_0" arrivalPos="44.65" arrivalSpeed="6.67" duration="33.00" routeLength="287.98" waitingTime="0.00" waitingCount="0" stopTime="0.00" timeLoss="12.49" rerouteNo="1" devices="tripinfo_from_east_left_turn_morning_peak.1 routing_from_east_left_turn_morning_peak.1" vType="auto" speedFactor="0.85" vaporized=""/>
    <tripinfo id="from_south_right_turn_morning_peak.0" depart="28804.00" departLane="638541493#1_0" departPos="5.10" departSpeed="0.00" departDelay="4.00" arrival="28857.00" arrivalLane="638541497#1_1" arrivalPos="50.87" arrivalSpeed="20.65" duration="53.00" routeLength="159.24" waitingTime="31.00" waitingCount="1" stopTime="0.00" timeLoss="42.44" rerouteNo="1" devices="tripinfo_from_south_right_turn_morning_peak.0 routing_from_south_right_turn_morning_peak.0" vType="car" speedFactor="1.21" vaporized=""/>
    <tripinfo id="from_south_right_turn_morning_peak.1" depart="28810.00" departLane="638541493#1_0" departPos="2.30" departSpeed="0.00" departDelay="2.24" arrival="28859.00" arrivalLane="638541497#1_1" arrivalPos="50.87" arrivalSpeed="24.02" duration="49.00" routeLength="162.04" waitingTime="25.00" waitingCount="1" stopTime="0.00" timeLoss="35.01" rerouteNo="1" devices="tripinfo_from_south_right_turn_morning_peak.1 routing_from_south_right_turn_morning_peak.1" vType="motorcycle" speedFactor="0.94" vaporized=""/>
    <tripinfo id="from_south_right_turn_morning_peak.2" depart="28818.00" departLane="638541493#1_0" departPos="2.30" departSpeed="0.00" departDelay="2.48" arrival="28861.00" arrivalLane="638541497#1_1" arrivalPos="50.87" arrivalSpeed="23.00" duration="43.00" routeLength="162.04" waitingTime="19.00" waitingCount="1" stopTime="0.00" timeLoss="29.46" rerouteNo="1" devices="tripinfo_from_south_right_turn_morning_peak.2 routing_from_south_right_turn_morning_peak.2" vType="motorcycle" speedFactor="0.96" vaporized=""/>
    <tripinfo id="from_south_right_turn_morning_peak.3" depart="28826.00" departLane="638541493#1_0" departPos="2.30" departSpeed="0.00" departDelay="2.73" arrival="28863.00" arrivalLane="638541497#1_1" arrivalPos="50.87" arrivalSpeed="24.87" duration="37.00" routeLength="162.04" waitingTime="15.00" waitingCount="1" stopTime="0.00" timeLoss="23.67" rerouteNo="1" devices="tripinfo_from_south_right_turn_morning_peak.3 routing_from_south_right_turn_morning_peak.3" vType="motorcycle" speedFactor="1.01" vaporized=""/>
    <tripinfo id="from_south_right_turn_morning_peak.4" depart="28833.00" departLane="638541493#1_0" departPos="2.30" departSpeed="0.00" departDelay="1.97" arrival="28865.00" arrivalLane="638541497#1_1" arrivalPos="50.87" arrivalSpeed="23.43" duration="32.00" routeLength="162.04" waitingTime="9.00" waitingCount="1" stopTime="0.00" timeLoss="17.67" rerouteNo="1" devices="tripinfo_from_south_right_turn_morning_peak.4 routing_from_south_right_turn_morning_peak.4" vType="motorcycle" speedFactor="0.92" vaporized=""/>
    <tripinfo id="from_south_straight_morning_peak.0" depart="28800.00" departLane="638541493#1_0" departPos="2.30" departSpeed="0.00" departDelay="0.00" arrival="28866.00" arrivalLane="328349209#9_0" arrivalPos="20.69" arrivalSpeed="20.43" duration="66.00" routeLength="345.44" waitingTime="31.00" waitingCount="1" stopTime="0.00" timeLoss="42.08" rerouteNo="1" devices="tripinfo_from_south_straight_morning_peak.0 routing_from_south_straight_morning_peak.0" vType="motorcycle" speedFactor="0.82" vaporized=""/>
    <tripinfo id="from_east_right_turn_morning_peak.2" depart="28837.00" departLane="1354145734#1_0" departPos="5.10" departSpeed="0.00" departDelay="24.26" arrival="28866.00" arrivalLane="328349209#9_1" arrivalPos="20.69" arrivalSpeed="25.44" duration="29.00" routeLength="363.40" waitingTime="0.00" waitingCount="0" stopTime="0.00" timeLoss="14.25" rerouteNo="1" devices="tripinfo_from_east_right_turn_morning_peak.2 routing_from_east_right_turn_morning_peak.2" vType="car" speedFactor="0.94" vaporized=""/>
    <tripinfo id="from_west_straight_morning_peak.2" depart="28805.00" departLane="263812623#1_0" departPos="5.10" departSpeed="0.00" departDelay="2.62" arrival="28867.00" arrivalLane="638541497#16_1" arrivalPos="109.58" arrivalSpeed="25.67" duration="62.00" routeLength="1045.99" waitingTime="0.00" waitingCount="0" stopTime="0.00" timeLoss="7.61" rerouteNo="1" devices="tripinfo_from_west_straight_morning_peak.2 routing_from_west_straight_morning_peak.2" vType="auto" speedFactor="0.96" vaporized=""/>
    <tripinfo id="from_west_straight_morning_peak.0" depart="28800.00" departLane="263812623#1_0" departPos="2.30" departSpeed="0.00" departDelay="0.00" arrival="28868.00" arrivalLane="638541497#16_0" arrivalPos="109.58" arrivalSpeed="24.45" duration="68.00" routeLength="1048.79" waitingTime="0.00" waitingCount="0" stopTime="0.00" timeLoss="8.19" rerouteNo="1" devices="tripinfo_from_west_straight_morning_peak.0 routing_from_west_straight_morning_peak.0" vType="motorcycle" speedFactor="0.88" vaporized=""/>
    <tripinfo id="from_south_right_turn_morning_peak.5" depart="28842.00" departLane="638541493#1_0" departPos="5.10" departSpeed="0.00" departDelay="3.21" arrival="28869.00" arrivalLane="638541497#1_1" arrivalPos="50.87" arrivalSpeed="17.65" duration="27.00" routeLength="159.24" waitingTime="5.00" waitingCount="1" stopTime="0.00" timeLoss="14.58" rerouteNo="1" devices="tripinfo_from_south_right_turn_morning_peak.5 routing_from_south_right_turn_morning_peak.5" vType="car" speedFactor="1.00" vaporized=""/>
    <tripinfo id="from_east_straight_morning_peak.0" depart="28800.00" departLane="1354145734#1_0" departPos="2.30" departSpeed="0.00" departDelay="0.00" arrival="28872.00" arrivalLane="638541495#1_0" arrivalPos="26.02" arrivalSpeed="6.82" duration="72.00" routeLength="629.94" waitingTime="0.00" waitingCount="0" stopTime="0.00" timeLoss="12.96" rerouteNo="1" devices="tripinfo_from_east_straight_morning_peak.0 routing_from_east_straight_morning_peak.0" vType="motorcycle" speedFactor="1.02" vaporized=""/>
    <tripinfo id="from_south_right_turn_morning_peak.6" depart="28851.00" departLane="638541493#1_0" departPos="5.10" departSpeed="0.00" departDelay="4.45" arrival="28872.00" arrivalLane="638541497#1_1" arrivalPos="50.87" arrivalSpeed="19.11" duration="21.00" routeLength="159.24" waitingTime="0.00" waitingCount="0" stopTime="0.00" timeLoss="8.04" rerouteNo="1" devices="tripinfo_from_south_right_turn_morning_peak.6 routing_from_south_right_turn_morning_peak.6" vType="auto" speedFactor="1.02" vaporized=""/>
    <tripinfo id="from_south_right_turn_morning_peak.7" depart="28856.00" departLane="638541493#1_0" departPos="2.30" departSpeed="0.00" departDelay="1.69" arrival="28873.00" arrivalLane="638541497#1_1" arrivalPos="50.87" arrivalSpeed="21.91" duration="17.00" routeLength="162.04" waitingTime="0.00" waitingCount="0" stopTime="0.00" timeLoss="5.58" rerouteNo="1" devices="tripinfo_from_south_right_turn_morning_peak.7 routing_from_south_right_turn_morning_peak.7" vType="motorcycle" speedFactor="1.12" vaporized=""/>
    <tripinfo id="from_south_left_turn_morning_peak.0" depart="28801.00" departLane="638541493#1_0" departPos="5.10" departSpeed="0.00" departDelay="1.00" arrival="28875.00" arrivalLane="638541495#2_0" arrivalPos="30.24" arrivalSpeed="6.87" duration="74.00" routeLength="501.00" waitingTime="0.00" waitingCount="0" stopTime="0.00" timeLoss="10.50" rerouteNo="1" devices="tripinfo_from_south_left_turn_morning_peak.0 routing_from_south_left_turn_morning_peak.0" vType="car" speedFactor="0.89" vaporized=""/>
    <tripinfo id="10" depart="28836.00" departLane="36257667#9_0" departPos="5.10" departSpeed="0.00" departDelay="0.00" arrival="28877.00" arrivalLane="213087089_0" arrivalPos="91.98" arrivalSpeed="15.66" duration="41.00" routeLength="437.32" waitingTime="0.00" waitingCount="0" stopTime="0.00" timeLoss="10.94" rerouteNo="1" devices="tripinfo_10 routing_10" vType="DEFAULT_VEHTYPE" speedFactor="1.14" vaporized=""/>
    <tripinfo id="from_south_straight_morning_peak.1" depart="28835.00" departLane="638541493#1_0" departPos="5.10" departSpeed="0.00" departDelay="0.05" arrival="28879.00" arrivalLane="328349209#9_0" arrivalPos="20.69" arrivalSpeed="26.43" duration="44.00" routeLength="342.64" waitingTime="7.00" waitingCount="1" stopTime="0.00" timeLoss="24.99" rerouteNo="1" devices="tripinfo_from_south_straight_morning_peak.1 routing_from_south_straight_morning_peak.1" vType="auto" speedFactor="0.98" vaporized=""/>
    <tripinfo id="from_south_left_turn_morning_peak.1" depart="28808.00" departLane="638541493#1_0" departPos="5.10" departSpeed="0.00" departDelay="0.24" arrival="28881.00" arrivalLane="638541495#2_0" arrivalPos="30.24" arrivalSpeed="7.95" duration="73.00" routeLength="501.00" waitingTime="1.00" waitingCount="1" stopTime="0.00" timeLoss="14.29" rerouteNo="1" devices="tripinfo_from_south_left_turn_morning_peak.1 routing_from_south_left_turn_morning_peak.1" vType="auto" speedFactor="0.96" vaporized=""/>
    <tripinfo id="7" depart="28826.00" departLane="169711262#3_0" departPos="5.10" departSpeed="0.00" departDelay="0.80" arrival="28882.00" arrivalLane="132907562#1_0" arrivalPos="14.25" arrivalSpeed="13.03" duration="56.00" routeLength="573.45" waitingTime="0.00" waitingCount="0" stopTime="0.00" timeLoss="11.37" rerouteNo="1" devices="tripinfo_7 routing_7" vType="DEFAULT_VEHTYPE" speedFactor="0.98" vaporized=""/>
    <tripinfo id="from_south_right_turn_morning_peak.8" depart="28865.00" departLane="638541493#1_0" departPos="2.30" departSpeed="0.00" departDelay="2.94" arrival="28882.00" arrivalLane="638541497#1_1" arrivalPos="50.87" arrivalSpeed="24.32" duration="17.00" routeLength="162.04" waitingTime="0.00" waitingCount="0" stopTime="0.00" timeLoss="3.98" rerouteNo="1" devices="tripinfo_from_south_right_turn_morning_peak.8 routing_from_south_right_turn_morning_peak.8" vType="motorcycle" speedFactor="1.00" vaporized=""/>
    <tripinfo id="from_east_straight_morning_peak.1" depart="28808.00" departLane="1354145734#1_0" departPos="5.10" departSpeed="0.00" departDelay="6.64" arrival="28884.00" arrivalLane="638541495#1_1" arrivalPos="26.02" arrivalSpeed="7.86" duration="76.00" routeLength="627.14" waitingTime="0.00" waitingCount="0" stopTime="0.00" timeLoss="20.10" rerouteNo="1" devices="tripinfo_from_east_straight_morning_peak.1 routing_from_east_straight_morning_peak.1" vType="car" speedFactor="1.07" vaporized=""/>
    <tripinfo id="from_east_right_turn_morning_peak.3" depart="28852.00" departLane="1354145734#1_0" departPos="5.10" departSpeed="0.00" departDelay="32.89" arrival="28885.00" arrivalLane="328349209#9_1" arrivalPos="20.69" arrivalSpeed="26.57" duration="33.00" routeLength="363.40" waitingTime="0.00" waitingCount="0" stopTime="0.00" timeLoss="18.59" rerouteNo="1" devices="tripinfo_from_east_right_turn_morning_peak.3 routing_from_east_right_turn_morning_peak.3" vType="auto" speedFactor="0.98" vaporized=""/>
    <tripinfo id="from_south_left_turn_morning_peak.3" depart="28824.00" departLane="638541493#1_0" departPos="2.30" departSpeed="0.00" departDelay="0.73" arrival="28888.00" arrivalLane="638541495#2_1" arrivalPos="30.24" arrivalSpeed="8.41" duration="64.00" routeLength="503.80" waitingTime="0.00" waitingCount="0" stopTime="0.00" timeLoss="12.83" rerouteNo="1" devices="tripinfo_from_south_left_turn_morning_peak.3 routing_from_south_left_turn_morning_peak.3" vType="motorcycle" speedFactor="1.11" vaporized=""/>
    <tripinfo id="from_east_straight_morning_peak.2" depart="28811.00" departLane="1354145734#1_0" departPos="2.30" departSpeed="0.00" departDelay="8.27" arrival="28891.00" arrivalLane="638541495#1_0" arrivalPos="26.02" arrivalSpeed="8.49" duration="80.00" routeLength="629.94" waitingTime="0.00" waitingCount="0" stopTime="0.00" timeLoss="24.26" rerouteNo="1" devices="tripinfo_from_east_straight_morning_peak.2 routing_from_east_straight_morning_peak.2" vType="motorcycle" speedFactor="1.09" vaporized=""/>
    <tripinfo id="from_south_right_turn_morning_peak.9" depart="28873.00" departLane="638541493#1_0" departPos="5.10" departSpeed="0.00" departDelay="3.18" arrival="28892.00" arrivalLane="638541497#1_1" arrivalPos="50.87" arrivalSpeed="19.68" duration="19.00" routeLength="159.24" waitingTime="0.00" waitingCount="0" stopTime="0.00" timeLoss="6.61" rerouteNo="1" devices="tripinfo_from_south_right_turn_morning_peak.9 routing_from_south_right_turn_morning_peak.9" vType="car" speedFactor="0.98" vaporized=""/>
    <tripinfo id="from_east_straight_morning_peak.3" depart="28813.00" departLane="1354145734#1_0" departPos="2.30" departSpeed="0.00" departDelay="8.91" arrival="28893.00" arrivalLane="638541495#1_0" arrivalPos="26.02" arrivalSpeed="7.13" duration="80.00" routeLength="629.94" waitingTime="0.00" waitingCount="0" stopTime="0.00" timeLoss="23.63" rerouteNo="1" devices="tripinfo_from_east_straight_morning_peak.3 routing_from_east_straight_morning_peak.3" vType="motorcycle" speedFactor="1.07" vaporized=""/>
    <tripinfo id="from_south_left_turn_morning_peak.2" depart="28816.00" departLane="638541493#1_0" departPos="5.10" departSpeed="0.00" departDelay="0.48" arrival="28893.00" arrivalLane="638541495#2_0" arrivalPos="30.24" arrivalSpeed="6.06" duration="77.00" routeLength="501.00" waitingTime="0.00" waitingCount="0" stopTime="0.00" timeLoss="11.72" rerouteNo="1" devices="tripinfo_from_south_left_turn_morning_peak.2 routing_from_south_left_turn_morning_peak.2" vType="car" speedFactor="0.87" vaporized=""/>
    <tripinfo id="2" depart="28808.00" departLane="26284129#7_0" departPos="5.10" departSpeed="0.00" departDelay="0.80" arrival="28896.00" arrivalLane="213042766#5_0" arrivalPos="50.03" arrivalSpeed="13.23" duration="88.00" routeLength="1012.11" waitingTime="4.00" waitingCount="1" stopTime="0.00" timeLoss="25.53" rerouteNo="1" devices="tripinfo_2 routing_2" vType="DEFAULT_VEHTYPE" speedFactor="1.01" vaporized=""/>
    <tripinfo id="from_east_straight_morning_peak.4" depart="28815.00" departLane="1354145734#1_0" departPos="2.30" departSpeed="0.00" departDelay="9.54" arrival="28897.00" arrivalLane="638541495#1_0" arrivalPos="26.02" arrivalSpeed="8.54" duration="82.00" routeLength="629.94" waitingTime="0.00" waitingCount="0" stopTime="0.00" timeLoss="23.75" rerouteNo="1" devices="tripinfo_from_east_straight_morning_peak.4 routing_from_east_straight_morning_peak.4" vType="motorcycle" speedFactor="1.04" vaporized=""/>
    <tripinfo id="from_east_straight_morning_peak.5" depart="28817.00" departLane="1354145734#1_0" departPos="5.10" departSpeed="0.00" departDelay="10.18" arrival="28900.00" arrivalLane="638541495#1_0" arrivalPos="26.02" arrivalSpeed="7.39" duration="83.00" routeLength="627.14" waitingTime="0.00" waitingCount="0" stopTime="0.00" timeLoss="17.18" rerouteNo="1" devices="tripinfo_from_east_straight_morning_peak.5 routing_from_east_straight_morning_peak.5" vType="auto" speedFactor="0.91" vaporized=""/>
    <tripinfo id="from_south_straight_morning_peak.2" depart="28870.00" departLane="638541493#1_0" departPos="2.30" departSpeed="0.00" departDelay="0.10" arrival="28902.00" arrivalLane="328349209#9_0" arrivalPos="20.69" arrivalSpeed="19.73" duration="32.00" routeLength="345.44" waitingTime="0.00" waitingCount="0" stopTime="0.00" timeLoss="8.47" rerouteNo="1" devices="tripinfo_from_south_straight_morning_peak.2 routing_from_south_straight_morning_peak.2" vType="motorcycle" speedFactor="0.82" vaporized=""/>
    <tripinfo id="11" depart="28840.00" departLane="-484510040#17_0" departPos="5.10" departSpeed="0.00" departDelay="0.40" arrival="28903.00" arrivalLane="-169711276#0_0" arrivalPos="9.15" arrivalSpeed="10.84" duration="63.00" routeLength="610.46" waitingTime="0.00" waitingCount="0" stopTime="0.00" timeLoss="17.16" rerouteNo="1" devices="tripinfo_11 routing_11" vType="DEFAULT_VEHTYPE" speedFactor="0.83" vaporized=""/>
    <tripinfo id="from_east_left_turn_morning_peak.2" depart="28835.00" departLane="1354145734#1_0" departPos="2.30" departSpeed="0.00" departDelay="22.26" arrival="28907.00" arrivalLane="1148421491#1_0" arrivalPos="44.65" arrivalSpeed="6.84" duration="72.00" routeLength="290.78" waitingTime="38.00" waitingCount="1" stopTime="0.00" timeLoss="55.00" rerouteNo="1" devices="tripinfo_from_east_left_turn_morning_peak.2 routing_from_east_left_turn_morning_peak.2" vType="motorcycle" speedFactor="1.04" vaporized=""/>
    <tripinfo id="from_south_left_turn_morning_peak.5" depart="28839.00" departLane="638541493#1_0" departPos="5.10" departSpeed="0.00" departDelay="0.21" arrival="28907.00" arrivalLane="638541495#2_0" arrivalPos="30.24" arrivalSpeed="8.17" duration="68.00" routeLength="501.00" waitingTime="0.00" waitingCount="0" stopTime="0.00" timeLoss="16.30" rerouteNo="1" devices="tripinfo_from_south_left_turn_morning_peak.5 routing_from_south_left_turn_morning_peak.5" vType="car" speedFactor="1.10" vaporized=""/>
    <tripinfo id="from_south_left_turn_morning_peak.4" depart="28832.00" departLane="638541493#1_0" departPos="2.30" departSpeed="0.00" departDelay="0.97" arrival="28909.00" arrivalLane="638541495#2_1" arrivalPos="30.24" arrivalSpeed="7.08" duration="77.00" routeLength="503.80" waitingTime="0.00" waitingCount="0" stopTime="0.00" timeLoss="17.25" rerouteNo="1" devices="tripinfo_from_south_left_turn_morning_peak.4 routing_from_south_left_turn_morning_peak.4" vType="motorcycle" speedFactor="0.96" vaporized=""/>
    <tripinfo id="1" depart="28804.00" departLane="-26284183#2_0" departPos="5.10" departSpeed="0.00" departDelay="0.40" arrival="28910.00" arrivalLane="-26284129#7_0" arrivalPos="40.68" arrivalSpeed="19.95" duration="106.00" routeLength="563.24" waitingTime="53.00" waitingCount="1" stopTime="0.00" timeLoss="71.96" rerouteNo="1" devices="tripinfo_1 routing_1" vType="DEFAULT_VEHTYPE" speedFactor="0.94" vaporized=""/>
    <tripinfo id="from_west_left_turn_morning_peak.1" depart="28812.00" departLane="263812623#1_0" departPos="2.30" departSpeed="0.00" departDelay="6.44" arrival="28910.00" arrivalLane="328349209#9_0" arrivalPos="20.69" arrivalSpeed="32.43" duration="98.00" routeLength="677.53" waitingTime="43.00" waitingCount="1" stopTime="0.00" timeLoss="66.43" rerouteNo="1" devices="tripinfo_from_west_left_turn_morning_peak.1 routing_from_west_left_turn_morning_peak.1" vType="motorcycle" speedFactor="1.24" vaporized=""/>
    <tripinfo id="30" depart="28908.00" departLane="-37110889#1_0" departPos="5.10" departSpeed="0.00" departDelay="0.00" arrival="28911.00" arrivalLane="-37110889#1_0" arrivalPos="11.84" arrivalSpeed="5.48" duration="3.00" routeLength="6.74" waitingTime="0.00" waitingCount="0" stopTime="0.00" timeLoss="2.57" rerouteNo="1" devices="tripinfo_30 routing_30" vType="DEFAULT_VEHTYPE" speedFactor="1.09" vaporized=""/>
    <tripinfo id="from_east_left_turn_morning_peak.3" depart="28850.00" departLane="1354145734#1_0" departPos="2.30" departSpeed="0.00" departDelay="30.89" arrival="28911.00" arrivalLane="1148421491#1_0" arrivalPos="44.65" arrivalSpeed="8.54" duration="61.00" routeLength="290.78" waitingTime="30.00" waitingCount="1" stopTime="0.00" timeLoss="45.27" rerouteNo="1" devices="tripinfo_from_east_left_turn_morning_peak.3 routing_from_east_left_turn_morning_peak.3" vType="motorcycle" speedFactor="1.09" vaporized=""/>
    <tripinfo id="from_south_left_turn_morning_peak.6" depart="28847.00" departLane="638541493#1_0" departPos="12.10" departSpeed="0.00" departDelay="0.45" arrival="28913.00" arrivalLane="638541495#2_0" arrivalPos="30.24" arrivalSpeed="7.74" duration="66.00" routeLength="494.00" waitingTime="0.00" waitingCount="0" stopTime="0.00" timeLoss="9.23" rerouteNo="1" devices="tripinfo_from_south_left_turn_morning_peak.6 routing_from_south_left_turn_morning_peak.6" vType="bus" speedFactor="1.00" vaporized=""/>
    <tripinfo id="from_west_straight_morning_peak.4" depart="28809.00" departLane="263812623#1_0" departPos="2.30" departSpeed="0.00" departDelay="4.23" arrival="28916.00" arrivalLane="638541497#16_0" arrivalPos="109.58" arrivalSpeed="27.84" duration="107.00" routeLength="1048.79" waitingTime="46.00" waitingCount="1" stopTime="0.00" timeLoss="56.40" rerouteNo="1" devices="tripinfo_from_west_straight_morning_peak.4 routing_from_west_straight_morning_peak.4" vType="motorcycle" speedFactor="1.05" vaporized=""/>
    <tripinfo id="12" depart="28844.00" departLane="638541497#8_0" departPos="5.10" departSpeed="0.00" departDelay="0.80" arrival="28917.00" arrivalLane="-553250634#1_0" arrivalPos="19.11" arrivalSpeed="10.36" duration="73.00" routeLength="630.48" waitingTime="25.00" waitingCount="1" stopTime="0.00" timeLoss="51.47" rerouteNo="1" devices="tripinfo_12 routing_12" vType="DEFAULT_VEHTYPE" speedFactor="1.25" vaporized=""/>
    <tripinfo id="from_west_straight_morning_peak.3" depart="28807.00" departLane="263812623#1_0" departPos="5.10" departSpeed="0.00" departDelay="3.42" arrival="28920.00" arrivalLane="638541497#16_1" arrivalPos="109.58" arrivalSpeed="30.32" duration="113.00" routeLength="1045.99" waitingTime="45.00" waitingCount="2" stopTime="0.00" timeLoss="65.67" rerouteNo="1" devices="tripinfo_from_west_straight_morning_peak.3 routing_from_west_straight_morning_peak.3" vType="auto" speedFactor="1.11" vaporized=""/>
    <tripinfo id="from_west_left_turn_morning_peak.2" depart="28822.00" departLane="263812623#1_0" departPos="5.10" departSpeed="0.00" departDelay="10.87" arrival="28921.00" arrivalLane="328349209#9_0" arrivalPos="20.69" arrivalSpeed="26.62" duration="99.00" routeLength="674.73" waitingTime="35.00" waitingCount="1" stopTime="0.00" timeLoss="58.88" rerouteNo="1" devices="tripinfo_from_west_left_turn_morning_peak.2 routing_from_west_left_turn_morning_peak.2" vType="auto" speedFactor="0.98" vaporized=""/>
    <tripinfo id="from_east_left_turn_morning_peak.4" depart="28863.00" departLane="1354145734#1_0" departPos="2.30" departSpeed="0.00" departDelay="37.52" arrival="28922.00" arrivalLane="1148421491#1_0" arrivalPos="44.65" arrivalSpeed="7.83" duration="59.00" routeLength="290.78" waitingTime="17.00" waitingCount="1" stopTime="0.00" timeLoss="42.54" rerouteNo="1" devices="tripinfo_from_east_left_turn_morning_peak.4 routing_from_east_left_turn_morning_peak.4" vType="motorcycle" speedFactor="1.04" vaporized=""/>
    <tripinfo id="from_west_straight_morning_peak.1" depart="28804.00" departLane="263812623#1_0" departPos="2.30" departSpeed="0.00" departDelay="2.81" arrival="28923.00" arrivalLane="638541497#16_0" arrivalPos="109.58" arrivalSpeed="22.18" duration="119.00" routeLength="1048.79" waitingTime="46.00" waitingCount="1" stopTime="0.00" timeLoss="59.11" rerouteNo="1" devices="tripinfo_from_west_straight_morning_peak.1 routing_from_west_straight_morning_peak.1" vType="motorcycle" speedFactor="0.88" vaporized=""/>
    <tripinfo id="from_west_straight_morning_peak.5" depart="28811.00" departLane="263812623#1_0" departPos="5.10" departSpeed="0.00" departDelay="5.04" arrival="28925.00" arrivalLane="638541497#16_0" arrivalPos="109.58" arrivalSpeed="27.04" duration="114.00" routeLength="1045.99" waitingTime="45.00" waitingCount="1" stopTime="0.00" timeLoss="62.86" rerouteNo="1" devices="tripinfo_from_west_straight_morning_peak.5 routing_from_west_straight_morning_peak.5" vType="auto" speedFactor="1.02" vaporized=""/>
    <tripinfo id="from_west_straight_morning_peak.6" depart="28814.00" departLane="263812623#1_0" departPos="2.30" departSpeed="0.00" departDelay="6.85" arrival="28926.00" arrivalLane="638541497#16_1" arrivalPos="109.58" arrivalSpeed="25.73" duration="112.00" routeLength="1048.79" waitingTime="43.00" waitingCount="2" stopTime="0.00" timeLoss="55.40" rerouteNo="1" devices="tripinfo_from_west_straight_morning_peak.6 routing_from_west_straight_morning_peak.6" vType="motorcycle" speedFactor="0.93" vaporized=""/>
    <tripinfo id="from_west_left_turn_morning_peak.3" depart="28834.00" departLane="263812623#1_0" departPos="5.10" departSpeed="0.00" departDelay="17.31" arrival="28926.00" arrivalLane="328349209#9_0" arrivalPos="20.69" arrivalSpeed="27.55" duration="92.00" routeLength="674.73" waitingTime="31.00" waitingCount="2" stopTime="0.00" timeLoss="54.16" rerouteNo="1" devices="tripinfo_from_west_left_turn_morning_peak.3 routing_from_west_left_turn_morning_peak.3" vType="auto" speedFactor="1.03" vaporized=""/>
    <tripinfo id="from_west_straight_morning_peak.7" depart="28815.00" departLane="263812623#1_0" departPos="2.30" departSpeed="0.00" departDelay="6.66" arrival="28927.00" arrivalLane="638541497#16_0" arrivalPos="109.58" arrivalSpeed="25.55" duration="112.00" routeLength="1048.79" waitingTime="41.00" waitingCount="1" stopTime="0.00" timeLoss="55.42" rerouteNo="1" devices="tripinfo_from_west_straight_morning_peak.7 routing_from_west_straight_morning_peak.7" vType="motorcycle" speedFactor="0.93" vaporized=""/>
    <tripinfo id="from_west_straight_morning_peak.8" depart="28817.00" departLane="263812623#1_0" departPos="5.10" departSpeed="0.00" departDelay="7.46" arrival="28929.00" arrivalLane="638541497#16_1" arrivalPos="109.58" arrivalSpeed="30.17" duration="112.00" routeLength="1045.99" waitingTime="40.00" waitingCount="1" stopTime="0.00" timeLoss="63.57" rerouteNo="1" devices="tripinfo_from_west_straight_morning_peak.8 routing_from_west_straight_morning_peak.8" vType="car" speedFactor="1.10" vaporized=""/>