<?xml version="1.0" encoding="UTF-8"?>

<!-- generated on 2025-11-17 17:47:21 by Eclipse SUMO GUI Version 1.24.0
<sumoConfiguration xmlns:xsi="http://www.w3.org/2001/XMLSchema-instance" xsi:noNamespaceSchemaLocation="http://sumo.dlr.de/xsd/sumoConfiguration.xsd">

    <input>
        <net-file value="SUMO_Trinity_Traffic_sim/osm.net.xml.gz"/>
        <route-files value="SUMO_Trinity_Traffic_sim/mg_road.rou.xml,SUMO_Trinity_Traffic_sim/ background.rou.xml"/>
        <additional-files value="SUMO_Trinity_Traffic_sim/osm.poly.xml.gz"/>
    </input>

    <output>
        <tripinfo-output value="SUMO_Trinity_Traffic_sim/tripinfo.xml"/>
    </output>

    <time>
        <begin value="28800.0"/>
        <step-length value="1.0"/>
    </time>

    <processing>
        <ignore-route-errors value="true"/>
        <tls.actuated.jam-threshold value="30"/>
    </processing>

    <routing>
        <device.rerouting.adaptation-steps value="18"/>
        <device.rerouting.adaptation-interval value="10"/>
    </routing>

    <report>
        <verbose value="true"/>
        <no-warnings value="true"/>
        <duration-log.statistics value="true"/>
        <no-step-log value="true"/>
    </report>

    <traci_server>
        <remote-port value="50305"/>
    </traci_server>

    <random_number>
        <seed value="5"/>
    </random_number>

    <gui_only>
        <gui-settings-file value="SUMO_Trinity_Traffic_sim/osm.view.xml"/>
        <quit-on-end value="true"/>
    </gui_only>

</sumoConfiguration>
-->

<tripinfos xmlns:xsi="http://www.w3.org/2001/XMLSchema-instance" xsi:noNamespaceSchemaLocation="http://sumo.dlr.de/xsd/tripinfo_file.xsd">
    <tripinfo id="from_south_right_turn_morning_peak.0" depart="28804.00" departLane="638541493#1_0" departPos="5.10" departSpeed="0.00" departDelay="4.00" arrival="28821.00" arrivalLane="638541497#1_1" arrivalPos="50.87" arrivalSpeed="18.87" duration="17.00" routeLength="159.24" waitingTime="0.00" waitingCount="0" stopTime="0.00" timeLoss="4.21" rerouteNo="1" devices="tripinfo_from_south_right_turn_morning_peak.0 routing_from_south_right_turn_morning_peak.0" vType="car" speedFactor="0.98" vaporized=""/>
    <tripinfo id="from_south_right_turn_morning_peak.1" depart="28809.00" departLane="638541493#1_0" departPos="2.30" departSpeed="0.00" departDelay="1.24" arrival="28827.00" arrivalLane="638541497#1_1" arrivalPos="50.87" arrivalSpeed="25.63" duration="18.00" routeLength="162.04" waitingTime="0.00" waitingCount="0" stopTime="0.00" timeLoss="3.97" rerouteNo="1" devices="tripinfo_from_south_right_turn_morning_peak.1 routing_from_south_right_turn_morning_peak.1" vType="motorcycle" speedFactor="0.96" vaporized=""/>
    <tripinfo id="from_south_straight_morning_peak.0" depart="28800.00" departLane="638541493#1_0" departPos="2.30" departSpeed="0.00" departDelay="0.00" arrival="28828.00" arrivalLane="328349209#9_0" arrivalPos="20.69" arrivalSpeed="24.32" duration="28.00" routeLength="345.44" waitingTime="0.00" waitingCount="0" stopTime="0.00" timeLoss="7.07" rerouteNo="1" devices="tripinfo_from_south_straight_morning_peak.0 routing_from_south_straight_morning_peak.0" vType="motorcycle" speedFactor="0.93" vaporized=""/>
    <tripinfo id="from_east_right_turn_morning_peak.0" depart="28803.00" departLane="1354145734#1_0" departPos="2.30" departSpeed="0.00" departDelay="3.00" arrival="28829.00" arrivalLane="328349209#9_1" arrivalPos="20.69" arrivalSpeed="24.29" duration="26.00" routeLength="366.20" waitingTime="0.00" waitingCount="0" stopTime="0.00" timeLoss="10.22" rerouteNo="1" devices="tripinfo_from_east_right_turn_morning_peak.0 routing_from_east_right_turn_morning_peak.0" vType="motorcycle" speedFactor="0.93" vaporized=""/>
    <tripinfo id="0" depart="28800.00" departLane="169709329#5_0" departPos="5.10" departSpeed="0.00" departDelay="0.00" arrival="28832.00" arrivalLane="-1103062099#1_0" arrivalPos="7.64" arrivalSpeed="11.51" duration="32.00" routeLength="124.30" waitingTime="0.00" waitingCount="0" stopTime="0.00" timeLoss="8.89" rerouteNo="1" devices="tripinfo_0 routing_0" vType="DEFAULT_VEHTYPE" speedFactor="1.16" vaporized=""/>
    <tripinfo id="from_south_right_turn_morning_peak.2" depart="28818.00" departLane="638541493#1_0" departPos="5.10" departSpeed="0.00" departDelay="2.48" arrival="28834.00" arrivalLane="638541497#1_1" arrivalPos="50.87" arrivalSpeed="22.17" duration="16.00" routeLength="159.24" waitingTime="0.00" waitingCount="0" stopTime="0.00" timeLoss="4.86" rerouteNo="1" devices="tripinfo_from_south_right_turn_morning_peak.2 routing_from_south_right_turn_morning_peak.2" vType="car" speedFactor="1.18" vaporized=""/>
    <tripinfo id="from_south_right_turn_morning_peak.3" depart="28826.00" departLane="638541493#1_0" departPos="2.30" departSpeed="0.00" departDelay="2.73" arrival="28843.00" arrivalLane="638541497#1_1" arrivalPos="50.87" arrivalSpeed="28.07" duration="17.00" routeLength="162.04" waitingTime="0.00" waitingCount="0" stopTime="0.00" timeLoss="4.12" rerouteNo="1" devices="tripinfo_from_south_right_turn_morning_peak.3 routing_from_south_right_turn_morning_peak.3" vType="motorcycle" speedFactor="1.04" vaporized=""/>
    <tripinfo id="3" depart="28811.00" departLane="491106117#3_0" departPos="5.10" departSpeed="0.00" departDelay="0.20" arrival="28849.00" arrivalLane="-132907566#1_0" arrivalPos="45.08" arrivalSpeed="13.52" duration="38.00" routeLength="342.86" waitingTime="0.00" waitingCount="0" stopTime="0.00" timeLoss="13.26" rerouteNo="1" devices="tripinfo_3 routing_3" vType="DEFAULT_VEHTYPE" speedFactor="1.11" vaporized=""/>
    <tripinfo id="from_east_right_turn_morning_peak.1" depart="28821.00" departLane="1354145734#1_0" departPos="12.10" departSpeed="0.00" departDelay="14.63" arrival="28858.00" arrivalLane="328349209#9_1" arrivalPos="20.69" arrivalSpeed="19.33" duration="37.00" routeLength="356.40" waitingTime="0.00" waitingCount="0" stopTime="0.00" timeLoss="23.61" rerouteNo="1" devices="tripinfo_from_east_right_turn_morning_peak.1 routing_from_east_right_turn_morning_peak.1" vType="bus" speedFactor="1.00" vaporized=""/>
    <tripinfo id="from_south_left_turn_morning_peak.0" depart="28801.00" departLane="638541493#1_0" departPos="5.10" departSpeed="0.00" departDelay="1.00" arrival="28861.00" arrivalLane="638541495#2_0" arrivalPos="30.24" arrivalSpeed="8.12" duration="60.00" routeLength="501.00" waitingTime="0.00" waitingCount="0" stopTime="0.00" timeLoss="8.61" rerouteNo="1" devices="tripinfo_from_south_left_turn_morning_peak.0 routing_from_south_left_turn_morning_peak.0" vType="auto" speedFactor="1.11" vaporized=""/>
    <tripinfo id="from_east_left_turn_morning_peak.0" depart="28802.00" departLane="1354145734#1_0" departPos="2.30" departSpeed="0.00" departDelay="2.00" arrival="28865.00" arrivalLane="1148421491#1_0" arrivalPos="44.65" arrivalSpeed="7.59" duration="63.00" routeLength="290.78" waitingTime="31.00" waitingCount="1" stopTime="0.00" timeLoss="46.50" rerouteNo="1" devices="tripinfo_from_east_left_turn_morning_peak.0 routing_from_east_left_turn_morning_peak.0" vType="motorcycle" speedFactor="1.03" vaporized=""/>
    <tripinfo id="from_east_right_turn_morning_peak.2" depart="28836.00" departLane="1354145734#1_0" departPos="2.30" departSpeed="0.00" departDelay="23.26" arrival="28865.00" arrivalLane="328349209#9_1" arrivalPos="20.69" arrivalSpeed="27.31" duration="29.00" routeLength="366.20" waitingTime="0.00" waitingCount="0" stopTime="0.00" timeLoss="14.51" rerouteNo="1" devices="tripinfo_from_east_right_turn_morning_peak.2 routing_from_east_right_turn_morning_peak.2" vType="motorcycle" speedFactor="1.01" vaporized=""/>
    <tripinfo id="from_east_left_turn_morning_peak.1" depart="28819.00" departLane="1354145734#1_0" departPos="2.30" departSpeed="0.00" departDelay="12.63" arrival="28871.00" arrivalLane="1148421491#1_0" arrivalPos="44.65" arrivalSpeed="9.19" duration="52.00" routeLength="290.78" waitingTime="18.00" waitingCount="2" stopTime="0.00" timeLoss="36.73" rerouteNo="1" devices="tripinfo_from_east_left_turn_morning_peak.1 routing_from_east_left_turn_morning_peak.1" vType="motorcycle" speedFactor="1.14" vaporized=""/>
    <tripinfo id="7" depart="28826.00" departLane="169711262#3_0" departPos="5.10" departSpeed="0.00" departDelay="0.80" arrival="28875.00" arrivalLane="132907562#1_0" arrivalPos="14.25" arrivalSpeed="14.69" duration="49.00" routeLength="573.45" waitingTime="0.00" waitingCount="0" stopTime="0.00" timeLoss="12.23" rerouteNo="1" devices="tripinfo_7 routing_7" vType="DEFAULT_VEHTYPE" speedFactor="1.20" vaporized=""/>
    <tripinfo id="from_south_left_turn_morning_peak.1" depart="28808.00" departLane="638541493#1_0" departPos="2.30" departSpeed="0.00" departDelay="0.24" arrival="28875.00" arrivalLane="638541495#2_0" arrivalPos="30.24" arrivalSpeed="7.09" duration="67.00" routeLength="503.80" waitingTime="0.00" waitingCount="0" stopTime="0.00" timeLoss="13.58" rerouteNo="1" devices="tripinfo_from_south_left_turn_morning_peak.1 routing_from_south_left_turn_morning_peak.1" vType="motorcycle" speedFactor="1.07" vaporized=""/>
    <tripinfo id="from_east_left_turn_morning_peak.2" depart="28834.00" departLane="1354145734#1_0" departPos="5.10" departSpeed="0.00" departDelay="21.26" arrival="28876.00" arrivalLane="1148421491#1_0" arrivalPos="44.65" arrivalSpeed="7.35" duration="42.00" routeLength="287.98" waitingTime="0.00" waitingCount="0" stopTime="0.00" timeLoss="24.99" rerouteNo="1" devices="tripinfo_from_east_left_turn_morning_peak.2 routing_from_east_left_turn_morning_peak.2" vType="auto" speedFactor="0.99" vaporized=""/>
    <tripinfo id="from_west_straight_morning_peak.0" depart="28800.00" departLane="263812623#1_0" departPos="2.30" departSpeed="0.00" departDelay="0.00" arrival="28877.00" arrivalLane="638541497#16_0" arrivalPos="109.58" arrivalSpeed="24.70" duration="77.00" routeLength="1048.79" waitingTime="15.00" waitingCount="1" stopTime="0.00" timeLoss="23.90" rerouteNo="1" devices="tripinfo_from_west_straight_morning_peak.0 routing_from_west_straight_morning_peak.0" vType="motorcycle" speedFactor="0.99" vaporized=""/>
    <tripinfo id="from_west_left_turn_morning_peak.0" depart="28801.00" departLane="263812623#1_0" departPos="12.10" departSpeed="0.00" departDelay="1.00" arrival="28880.00" arrivalLane="328349209#9_0" arrivalPos="20.69" arrivalSpeed="19.89" duration="79.00" routeLength="667.73" waitingTime="11.00" waitingCount="1" stopTime="0.00" timeLoss="40.31" rerouteNo="1" devices="tripinfo_from_west_left_turn_morning_peak.0 routing_from_west_left_turn_morning_peak.0" vType="bus" speedFactor="1.00" vaporized=""/>
    <tripinfo id="from_west_straight_morning_peak.1" depart="28805.00" departLane="263812623#1_0" departPos="5.10" departSpeed="0.00" departDelay="3.81" arrival="28881.00" arrivalLane="638541497#16_1" arrivalPos="109.58" arrivalSpeed="26.87" duration="76.00" routeLength="1045.99" waitingTime="7.00" waitingCount="1" stopTime="0.00" timeLoss="22.40" rerouteNo="1" devices="tripinfo_from_west_straight_morning_peak.1 routing_from_west_straight_morning_peak.1" vType="car" speedFactor="0.97" vaporized=""/>
    <tripinfo id="10" depart="28836.00" departLane="36257667#9_0" departPos="5.10" departSpeed="0.00" departDelay="0.00" arrival="28881.00" arrivalLane="213087089_0" arrivalPos="91.98" arrivalSpeed="13.11" duration="45.00" routeLength="437.32" waitingTime="0.00" waitingCount="0" stopTime="0.00" timeLoss="11.96" rerouteNo="1" devices="tripinfo_10 routing_10" vType="DEFAULT_VEHTYPE" speedFactor="1.04" vaporized=""/>
    <tripinfo id="from_west_left_turn_morning_peak.1" depart="28812.00" departLane="263812623#1_0" departPos="2.30" departSpeed="0.00" departDelay="6.44" arrival="28882.00" arrivalLane="328349209#9_0" arrivalPos="20.69" arrivalSpeed="26.78" duration="70.00" routeLength="677.53" waitingTime="5.00" waitingCount="1" stopTime="0.00" timeLoss="28.94" rerouteNo="1" devices="tripinfo_from_west_left_turn_morning_peak.1 routing_from_west_left_turn_morning_peak.1" vType="motorcycle" speedFactor="0.98" vaporized=""/>
    <tripinfo id="from_west_straight_morning_peak.4" depart="28808.00" departLane="263812623#1_0" departPos="2.30" departSpeed="0.00" departDelay="3.23" arrival="28883.00" arrivalLane="638541497#16_1" arrivalPos="109.58" arrivalSpeed="27.14" duration="75.00" routeLength="1048.79" waitingTime="5.00" waitingCount="1" stopTime="0.00" timeLoss="23.04" rerouteNo="1" devices="tripinfo_from_west_straight_morning_peak.4 routing_from_west_straight_morning_peak.4" vType="motorcycle" speedFactor="1.01" vaporized=""/>
    <tripinfo id="from_west_straight_morning_peak.3" depart="28807.00" departLane="263812623#1_0" departPos="2.30" departSpeed="0.00" departDelay="3.42" arrival="28886.00" arrivalLane="638541497#16_1" arrivalPos="109.58" arrivalSpeed="24.35" duration="79.00" routeLength="1048.79" waitingTime="4.00" waitingCount="1" stopTime="0.00" timeLoss="22.62" rerouteNo="1" devices="tripinfo_from_west_straight_morning_peak.3 routing_from_west_straight_morning_peak.3" vType="motorcycle" speedFactor="0.93" vaporized=""/>
    <tripinfo id="from_east_left_turn_morning_peak.3" depart="28850.00" departLane="1354145734#1_0" departPos="5.10" departSpeed="0.00" departDelay="30.89" arrival="28886.00" arrivalLane="1148421491#1_0" arrivalPos="44.65" arrivalSpeed="8.01" duration="36.00" routeLength="287.98" waitingTime="0.00" waitingCount="0" stopTime="0.00" timeLoss="18.67" rerouteNo="1" devices="tripinfo_from_east_left_turn_morning_peak.3 routing_from_east_left_turn_morning_peak.3" vType="auto" speedFactor="0.97" vaporized=""/>
    <tripinfo id="from_west_left_turn_morning_peak.2" depart="28825.00" departLane="263812623#1_0" departPos="5.10" departSpeed="0.00" departDelay="13.87" arrival="28887.00" arrivalLane="328349209#9_0" arrivalPos="20.69" arrivalSpeed="27.09" duration="62.00" routeLength="674.73" waitingTime="0.00" waitingCount="0" stopTime="0.00" timeLoss="24.53" rerouteNo="1" devices="tripinfo_from_west_left_turn_morning_peak.2 routing_from_west_left_turn_morning_peak.2" vType="auto" speedFactor="1.04" vaporized=""/>
    <tripinfo id="from_east_right_turn_morning_peak.3" depart="28852.00" departLane="1354145734#1_0" departPos="2.30" departSpeed="0.00" departDelay="32.89" arrival="28887.00" arrivalLane="328349209#9_1" arrivalPos="20.69" arrivalSpeed="30.43" duration="35.00" routeLength="366.20" waitingTime="0.00" waitingCount="0" stopTime="0.00" timeLoss="22.02" rerouteNo="1" devices="tripinfo_from_east_right_turn_morning_peak.3 routing_from_east_right_turn_morning_peak.3" vType="motorcycle" speedFactor="1.16" vaporized=""/>
    <tripinfo id="from_west_straight_morning_peak.2" depart="28806.00" departLane="263812623#1_0" departPos="5.10" departSpeed="0.00" departDelay="3.62" arrival="28889.00" arrivalLane="638541497#16_1" arrivalPos="109.58" arrivalSpeed="27.30" duration="83.00" routeLength="1045.99" waitingTime="6.00" waitingCount="2" stopTime="0.00" timeLoss="31.49" rerouteNo="1" devices="tripinfo_from_west_straight_morning_peak.2 routing_from_west_straight_morning_peak.2" vType="auto" speedFactor="1.03" vaporized=""/>
    <tripinfo id="from_west_straight_morning_peak.5" depart="28811.00" departLane="263812623#1_0" departPos="5.10" departSpeed="0.00" departDelay="5.04" arrival="28889.00" arrivalLane="638541497#16_0" arrivalPos="109.58" arrivalSpeed="27.17" duration="78.00" routeLength="1045.99" waitingTime="6.00" waitingCount="1" stopTime="0.00" timeLoss="27.75" rerouteNo="1" devices="tripinfo_from_west_straight_morning_peak.5 routing_from_west_straight_morning_peak.5" vType="auto" speedFactor="1.04" vaporized=""/>
    <tripinfo id="from_south_left_turn_morning_peak.2" depart="28816.00" departLane="638541493#1_0" departPos="2.30" departSpeed="0.00" departDelay="0.48" arrival="28890.00" arrivalLane="638541495#2_0" arrivalPos="30.24" arrivalSpeed="6.98" duration="74.00" routeLength="503.80" waitingTime="0.00" waitingCount="0" stopTime="0.00" timeLoss="15.56" rerouteNo="1" devices="tripinfo_from_south_left_turn_morning_peak.2 routing_from_south_left_turn_morning_peak.2" vType="motorcycle" speedFactor="0.98" vaporized=""/>
    <tripinfo id="from_west_straight_morning_peak.9" depart="28821.00" departLane="263812623#1_0" departPos="2.30" departSpeed="0.00" departDelay="10.27" arrival="28891.00" arrivalLane="638541497#16_0" arrivalPos="109.58" arrivalSpeed="27.26" duration="70.00" routeLength="1048.79" waitingTime="0.00" waitingCount="0" stopTime="0.00" timeLoss="20.78" rerouteNo="1" devices="tripinfo_from_west_straight_morning_peak.9 routing_from_west_straight_morning_peak.9" vType="motorcycle" speedFactor="1.08" vaporized=""/>
    <tripinfo id="11" depart="28840.00" departLane="-484510040#17_0" departPos="5.10" departSpeed="0.00" departDelay="0.40" arrival="28892.00" arrivalLane="-169711276#0_0" arrivalPos="9.15" arrivalSpeed="10.46" duration="52.00" routeLength="610.46" waitingTime="0.00" waitingCount="0" stopTime="0.00" timeLoss="21.99" rerouteNo="1" devices="tripinfo_11 routing_11" vType="DEFAULT_VEHTYPE" speedFactor="1.25" vaporized=""/>
    <tripinfo id="from_west_straight_morning_peak.8" depart="28820.00" departLane="263812623#1_0" departPos="2.30" departSpeed="0.00" departDelay="10.46" arrival="28892.00" arrivalLane="638541497#16_1" arrivalPos="109.58" arrivalSpeed="25.45" duration="72.00" routeLength="1048.79" waitingTime="4.00" waitingCount="1" stopTime="0.00" timeLoss="19.38" rerouteNo="1" devices="tripinfo_from_west_straight_morning_peak.8 routing_from_west_straight_morning_peak.8" vType="motorcycle" speedFactor="1.01" vaporized=""/>
    <tripinfo id="2" depart="28808.00" departLane="26284129#7_0" departPos="5.10" departSpeed="0.00" departDelay="0.80" arrival="28893.00" arrivalLane="213042766#5_0" arrivalPos="50.03" arrivalSpeed="13.41" duration="85.00" routeLength="1012.11" waitingTime="2.00" waitingCount="1" stopTime="0.00" timeLoss="20.95" rerouteNo="1" devices="tripinfo_2 routing_2" vType="DEFAULT_VEHTYPE" speedFactor="0.99" vaporized=""/>
    <tripinfo id="from_south_left_turn_morning_peak.4" depart="28832.00" departLane="638541493#1_0" departPos="5.10" departSpeed="0.00" departDelay="0.97" arrival="28895.00" arrivalLane="638541495#2_0" arrivalPos="30.24" arrivalSpeed="8.48" duration="63.00" routeLength="501.00" waitingTime="0.00" waitingCount="0" stopTime="0.00" timeLoss="8.40" rerouteNo="1" devices="tripinfo_from_south_left_turn_morning_peak.4 routing_from_south_left_turn_morning_peak.4" vType="auto" speedFactor="1.03" vaporized=""/>
    <tripinfo id="from_west_left_turn_morning_peak.3" depart="28836.00" departLane="263812623#1_0" departPos="5.10" departSpeed="0.00" departDelay="19.31" arrival="28896.00" arrivalLane="328349209#9_0" arrivalPos="20.69" arrivalSpeed="27.31" duration="60.00" routeLength="674.73" waitingTime="1.00" waitingCount="1" stopTime="0.00" timeLoss="21.24" rerouteNo="1" devices="tripinfo_from_west_left_turn_morning_peak.3 routing_from_west_left_turn_morning_peak.3" vType="auto" speedFactor="1.03" vaporized=""/>
    <tripinfo id="from_west_straight_morning_peak.6" depart="28817.00" departLane="263812623#1_0" departPos="2.30" departSpeed="0.00" departDelay="9.85" arrival="28898.00" arrivalLane="638541497#16_0" arrivalPos="109.58" arrivalSpeed="19.71" duration="81.00" routeLength="1048.79" waitingTime="0.00" waitingCount="0" stopTime="0.00" timeLoss="14.55" rerouteNo="1" devices="tripinfo_from_west_straight_morning_peak.6 routing_from_west_straight_morning_peak.6" vType="motorcycle" speedFactor="0.79" vaporized=""/>
    <tripinfo id="from_west_straight_morning_peak.7" depart="28819.00" departLane="263812623#1_0" departPos="2.30" departSpeed="0.00" departDelay="10.66" arrival="28899.00" arrivalLane="638541497#16_0" arrivalPos="109.58" arrivalSpeed="24.54" duration="80.00" routeLength="1048.79" waitingTime="0.00" waitingCount="0" stopTime="0.00" timeLoss="29.81" rerouteNo="1" devices="tripinfo_from_west_straight_morning_peak.7 routing_from_west_straight_morning_peak.7" vType="motorcycle" speedFactor="1.05" vaporized=""/>
    <tripinfo id="from_south_left_turn_morning_peak.3" depart="28824.00" departLane="638541493#1_0" departPos="2.30" departSpeed="0.00" departDelay="0.73" arrival="28899.00" arrivalLane="638541495#2_0" arrivalPos="30.24" arrivalSpeed="6.82" duration="75.00" routeLength="503.80" waitingTime="0.00" waitingCount="0" stopTime="0.00" timeLoss="17.03" rerouteNo="1" devices="tripinfo_from_south_left_turn_morning_peak.3 routing_from_south_left_turn_morning_peak.3" vType="motorcycle" speedFactor="0.98" vaporized=""/>
    <tripinfo id="from_west_straight_morning_peak.13" depart="28833.00" departLane="263812623#1_0" departPos="5.10" departSpeed="0.00" departDelay="17.50" arrival="28900.00" arrivalLane="638541497#16_1" arrivalPos="109.58" arrivalSpeed="24.77" duration="67.00" routeLength="1045.99" waitingTime="0.00" waitingCount="0" stopTime="0.00" timeLoss="8.64" rerouteNo="1" devices="tripinfo_from_west_straight_morning_peak.13 routing_from_west_straight_morning_peak.13" vType="auto" speedFactor="0.91" vaporized=""/>
    <tripinfo id="from_west_straight_morning_peak.10" depart="28823.00" departLane="263812623#1_0" departPos="2.30" departSpeed="0.00" departDelay="11.08" arrival="28901.00" arrivalLane="638541497#16_0" arrivalPos="109.58" arrivalSpeed="28.32" duration="78.00" routeLength="1048.79" waitingTime="1.00" waitingCount="1" stopTime="0.00" timeLoss="27.54" rerouteNo="1" devices="tripinfo_from_west_straight_morning_peak.10 routing_from_west_straight_morning_peak.10" vType="motorcycle" speedFactor="1.05" vaporized=""/>
    <tripinfo id="from_east_left_turn_morning_peak.4" depart="28865.00" departLane="1354145734#1_0" departPos="5.10" departSpeed="0.00" departDelay="39.52" arrival="28903.00" arrivalLane="1148421491#1_0" arrivalPos="44.65" arrivalSpeed="7.24" duration="38.00" routeLength="287.98" waitingTime="0.00" waitingCount="0" stopTime="0.00" timeLoss="19.56" rerouteNo="1" devices="tripinfo_from_east_left_turn_morning_peak.4 routing_from_east_left_turn_morning_peak.4" vType="car" speedFactor="0.94" vaporized=""/>
    <tripinfo id="from_west_right_turn_morning_peak.0" depart="28803.00" departLane="263812623#1_0" departPos="2.30" departSpeed="0.00" departDelay="3.00" arrival="28905.00" arrivalLane="1148421491#1_0" arrivalPos="44.65" arrivalSpeed="6.34" duration="102.00" routeLength="501.63" waitingTime="41.00" waitingCount="3" stopTime="0.00" timeLoss="66.50" rerouteNo="1" devices="tripinfo_from_west_right_turn_morning_peak.0 routing_from_west_right_turn_morning_peak.0" vType="motorcycle" speedFactor="1.08" vaporized=""/>
    <tripinfo id="from_west_straight_morning_peak.16" depart="28843.00" departLane="263812623#1_0" departPos="5.10" departSpeed="0.00" departDelay="23.93" arrival="28905.00" arrivalLane="638541497#16_1" arrivalPos="109.58" arrivalSpeed="27.02" duration="62.00" routeLength="1045.99" waitingTime="0.00" waitingCount="0" stopTime="0.00" timeLoss="8.66" rerouteNo="1" devices="tripinfo_from_west_straight_morning_peak.16 routing_from_west_straight_morning_peak.16" vType="auto" speedFactor="0.99" vaporized=""/>
    <tripinfo id="from_south_right_turn_morning_peak.4" depart="28834.00" departLane="638541493#1_0" departPos="2.30" departSpeed="0.00" departDelay="2.97" arrival="28905.00" arrivalLane="638541497#1_1" arrivalPos="50.87" arrivalSpeed="22.85" duration="71.00" routeLength="162.04" waitingTime="47.00" waitingCount="1" stopTime="0.00" timeLoss="55.87" rerouteNo="1" devices="tripinfo_from_south_right_turn_morning_peak.4 routing_from_south_right_turn_morning_peak.4" vType="motorcycle" speedFactor="0.90" vaporized=""/>
    <tripinfo id="from_west_right_turn_morning_peak.1" depart="28815.00" departLane="263812623#1_0" departPos="5.10" departSpeed="0.00" departDelay="9.44" arrival="28907.00" arrivalLane="1148421491#1_0" arrivalPos="44.65" arrivalSpeed="7.64" duration="92.00" routeLength="498.83" waitingTime="32.00" waitingCount="3" stopTime="0.00" timeLoss="55.68" rerouteNo="1" devices="tripinfo_from_west_right_turn_morning_peak.1 routing_from_west_right_turn_morning_peak.1" vType="car" speedFactor="1.05" vaporized=""/>
    <tripinfo id="from_east_straight_morning_peak.1" depart="28804.00" departLane="1354145734#1_0" departPos="2.30" departSpeed="0.00" departDelay="2.64" arrival="28908.00" arrivalLane="638541495#1_1" arrivalPos="26.02" arrivalSpeed="7.77" duration="104.00" routeLength="629.94" waitingTime="26.00" waitingCount="2" stopTime="0.00" timeLoss="49.23" rerouteNo="1" devices="tripinfo_from_east_straight_morning_peak.1 routing_from_east_straight_morning_peak.1" vType="motorcycle" speedFactor="1.10" vaporized=""/>
    <tripinfo id="from_west_straight_morning_peak.12" depart="28830.00" departLane="263812623#1_0" departPos="2.30" departSpeed="0.00" departDelay="15.70" arrival="28909.00" arrivalLane="638541497#16_0" arrivalPos="109.58" arrivalSpeed="19.85" duration="79.00" routeLength="1048.79" waitingTime="0.00" waitingCount="0" stopTime="0.00" timeLoss="11.17" rerouteNo="1" devices="tripinfo_from_west_straight_morning_peak.12 routing_from_west_straight_morning_peak.12" vType="motorcycle" speedFactor="0.78" vaporized=""/>
    <tripinfo id="1" depart="28804.00" departLane="-26284183#2_0" departPos="5.10" departSpeed="0.00" departDelay="0.40" arrival="28910.00" arrivalLane="-26284129#7_0" arrivalPos="40.68" arrivalSpeed="20.68" duration="106.00" routeLength="563.24" waitingTime="54.00" waitingCount="1" stopTime="0.00" timeLoss="76.80" rerouteNo="1" devices="tripinfo_1 routing_1" vType="DEFAULT_VEHTYPE" speedFactor="1.12" vaporized=""/>
    <tripinfo id="from_east_straight_morning_peak.2" depart="28807.00" departLane="1354145734#1_0" departPos="12.10" departSpeed="0.00" departDelay="4.27" arrival="28910.00" arrivalLane="638541495#1_1" arrivalPos="26.02" arrivalSpeed="8.14" duration="103.00" routeLength="620.14" waitingTime="20.00" waitingCount="1" stopTime="0.00" timeLoss="43.48" rerouteNo="1" devices="tripinfo_from_east_straight_morning_peak.2 routing_from_east_straight_morning_peak.2" vType="bus" speedFactor="1.00" vaporized=""/>
    <tripinfo id="from_west_right_turn_morning_peak.2" depart="28826.00" departLane="263812623#1_0" departPos="5.10" departSpeed="0.00" departDelay="14.87" arrival="28910.00" arrivalLane="1148421491#1_0" arrivalPos="44.65" arrivalSpeed="4.87" duration="84.00" routeLength="498.83" waitingTime="29.00" waitingCount="3" stopTime="0.00" timeLoss="51.47" rerouteNo="1" devices="tripinfo_from_west_right_turn_morning_peak.2 routing_from_west_right_turn_morning_peak.2" vType="car" speedFactor="1.19" vaporized=""/>
    <tripinfo id="from_west_straight_morning_peak.11" depart="28828.00" departLane="263812623#1_0" departPos="2.30" departSpeed="0.00" departDelay="14.89" arrival="28910.00" arrivalLane="638541497#16_0" arrivalPos="109.58" arrivalSpeed="25.99" duration="82.00" routeLength="1048.79" waitingTime="6.00" waitingCount="2" stopTime="0.00" timeLoss="35.15" rerouteNo="1" devices="tripinfo_from_west_straight_morning_peak.11 routing_from_west_straight_morning_peak.11" vType="motorcycle" speedFactor="1.13" vaporized=""/>
    <tripinfo id="from_east_straight_morning_peak.0" depart="28800.00" departLane="1354145734#1_0" departPos="5.10" departSpeed="0.00" departDelay="0.00" arrival="28911.00" arrivalLane="638541495#1_0" arrivalPos="26.02" arrivalSpeed="7.15" duration="111.00" routeLength="627.14" waitingTime="32.00" waitingCount="1" stopTime="0.00" timeLoss="49.41" rerouteNo="1" devices="tripinfo_from_east_straight_morning_peak.0 routing_from_east_straight_morning_peak.0" vType="auto" speedFactor="0.98" vaporized=""/>
    <tripinfo id="30" depart="28908.00" departLane="-37110889#1_0" departPos="5.10" departSpeed="0.00" departDelay="0.00" arrival="28911.00" arrivalLane="-37110889#1_0" arrivalPos="11.84" arrivalSpeed="6.65" duration="3.00" routeLength="6.74" waitingTime="0.00" waitingCount="0" stopTime="0.00" timeLoss="2.41" rerouteNo="1" devices="tripinfo_30 routing_30" vType="DEFAULT_VEHTYPE" speedFactor="0.94" vaporized=""/>
    <tripinfo id="from_west_straight_morning_peak.17" depart="28845.00" departLane="263812623#1_0" departPos="2.30" departSpeed="0.00" departDelay="24.74" arrival="28911.00" arrivalLane="638541497#16_0" arrivalPos="109.58" arrivalSpeed="25.57" duration="66.00" routeLength="1048.79" waitingTime="0.00" waitingCount="0" stopTime="0.00" timeLoss="12.18" rerouteNo="1" devices="tripinfo_from_west_straight_morning_peak.17 routing_from_west_straight_morning_peak.17" vType="motorcycle" speedFactor="0.97" vaporized=""/>
    <tripinfo id="from_south_right_turn_morning_peak.5" depart="28841.00" departLane="638541493#1_0" departPos="5.10" departSpeed="0.00" departDelay="2.21" arrival="28912.00" arrivalLane="638541497#1_1" arrivalPos="50.87" arrivalSpeed="18.24" duration="71.00" routeLength="159.24" waitingTime="46.00" waitingCount="1" stopTime="0.00" timeLoss="57.42" rerouteNo="1" devices="tripinfo_from_south_right_turn_morning_peak.5 routing_from_south_right_turn_morning_peak.5" vType="auto" speedFactor="0.96" vaporized=""/>
    <tripinfo id="from_east_straight_morning_peak.4" depart="28814.00" departLane="1354145734#1_0" departPos="5.10" departSpeed="0.00" departDelay="8.54" arrival="28913.00" arrivalLane="638541495#1_1" arrivalPos="26.02" arrivalSpeed="8.56" duration="99.00" routeLength="627.14" waitingTime="19.00" waitingCount="1" stopTime="0.00" timeLoss="46.09" rerouteNo="1" devices="tripinfo_from_east_straight_morning_peak.4 routing_from_east_straight_morning_peak.4" vType="car" speedFactor="1.14" vaporized=""/>