<?xml version="1.0" encoding="UTF-8"?>

<!-- generated on 2025-11-17 19:11:09 by Eclipse SUMO sumo Version 1.24.0
<sumoConfiguration xmlns:xsi="http://www.w3.org/2001/XMLSchema-instance" xsi:noNamespaceSchemaLocation="http://sumo.dlr.de/xsd/sumoConfiguration.xsd">

    <input>
        <net-file value="SUMO_Trinity_Traffic_sim/osm.net.xml.gz"/>
        <route-files value="SUMO_Trinity_Traffic_sim/mg_road.rou.xml,SUMO_Trinity_Traffic_sim/ background.rou.xml"/>
        <additional-files value="SUMO_Trinity_Traffic_sim/osm.poly.xml.gz"/>
    </input>

    <output>
        <tripinfo-output value="SUMO_Trinity_Traffic_sim/tripinfo.xml"/>
    </output>

    <time>
        <begin value="28800.0"/>
        <step-length value="1.0"/>
    </time>

    <processing>
        <ignore-route-errors value="true"/>
        <tls.actuated.jam-threshold value="30"/>
    </processing>

    <routing>
        <device.rerouting.adaptation-steps value="18"/>
        <device.rerouting.adaptation-interval value="10"/>
    </routing>

    <report>
        <verbose value="true"/>
        <no-warnings value="true"/>
        <duration-log.statistics value="true"/>
        <no-step-log value="true"/>
    </report>

    <traci_server>
        <remote-port value="60247"/>
    </traci_server>

    <random_number>
        <seed value="32"/>
    </random_number>

    <gui_only>
        <gui-settings-file value="SUMO_Trinity_Traffic_sim/osm.view.xml"/>
        <quit-on-end value="true"/>
    </gui_only>

</sumoConfiguration>
-->

<tripinfos xmlns:xsi="http://www.w3.org/2001/XMLSchema-instance" xsi:noNamespaceSchemaLocation="http://sumo.dlr.de/xsd/tripinfo_file.xsd">
    <tripinfo id="0" depart="28800.00" departLane="169709329#5_0" departPos="5.10" departSpeed="0.00" departDelay="0.00" arrival="28845.00" arrivalLane="-1103062099#1_0" arrivalPos="7.64" arrivalSpeed="10.85" duration="45.00" routeLength="124.30" waitingTime="0.00" waitingCount="0" stopTime="0.00" timeLoss="12.14" rerouteNo="1" devices="tripinfo_0 routing_0" vType="DEFAULT_VEHTYPE" speedFactor="0.81" vaporized=""/>
    <tripinfo id="emergency_west_morning.0" depart="28800.00" departLane="263812623#1_0" departPos="6.60" departSpeed="0.00" departDelay="0.00" arrival="28848.00" arrivalLane="638541497#16_0" arrivalPos="109.58" arrivalSpeed="35.38" duration="48.00" routeLength="1044.49" waitingTime="0.00" waitingCount="0" stopTime="0.00" timeLoss="7.20" rerouteNo="1" devices="tripinfo_emergency_west_morning.0 routing_emergency_west_morning.0" vType="emergency" speedFactor="1.30" vaporized=""/>
    <tripinfo id="3" depart="28811.00" departLane="491106117#3_0" departPos="5.10" departSpeed="0.00" departDelay="0.20" arrival="28848.00" arrivalLane="-132907566#1_0" arrivalPos="45.08" arrivalSpeed="13.84" duration="37.00" routeLength="342.86" waitingTime="0.00" waitingCount="0" stopTime="0.00" timeLoss="12.14" rerouteNo="1" devices="tripinfo_3 routing_3" vType="DEFAULT_VEHTYPE" speedFactor="1.11" vaporized=""/>
     <tripinfo id="emergency_west_morning.0" depart="28800.00" departLane="263812623#1_0" departPos="6.60" departSpeed="0.00" departDelay="0.00" arrival="28876.00" arrivalLane="638541497#16_0" arrivalPos="109.58" arrivalSpeed="36.05" duration="76.00" routeLength="1044.49" waitingTime="20.00" waitingCount="1" stopTime="0.00" timeLoss="35.56" rerouteNo="1" devices="tripinfo_emergency_west_morning.0 routing_emergency_west_morning.0" vType="emergency" speedFactor="1.30" vaporized=""/>
    <tripinfo id="7" depart="28826.00" departLane="169711262#3_0" departPos="5.10" departSpeed="0.00" departDelay="0.80" arrival="28880.00" arrivalLane="132907562#1_0" arrivalPos="14.25" arrivalSpeed="12.68" duration="54.00" routeLength="573.45" waitingTime="0.00" waitingCount="0" stopTime="0.00" timeLoss="12.31" rerouteNo="1" devices="tripinfo_7 routing_7" vType="DEFAULT_VEHTYPE" speedFactor="1.03" vaporized=""/>
    <tripinfo id="10" depart="28836.00" departLane="36257667#9_0" departPos="5.10" departSpeed="0.00" departDelay="0.00" arrival="28882.00" arrivalLane="213087089_0" arrivalPos="91.98" arrivalSpeed="12.98" duration="46.00" routeLength="437.32" waitingTime="0.00" waitingCount="0" stopTime="0.00" timeLoss="10.17" rerouteNo="1" devices="tripinfo_10 routing_10" vType="DEFAULT_VEHTYPE" speedFactor="0.98" vaporized=""/>
    <tripinfo id="2" depart="28808.00" departLane="26284129#7_0" departPos="5.10" departSpeed="0.00" departDelay="0.80" arrival="28883.00" arrivalLane="213042766#5_0" arrivalPos="50.03" arrivalSpeed="14.97" duration="75.00" routeLength="1012.11" waitingTime="0.00" waitingCount="0" stopTime="0.00" timeLoss="16.21" rerouteNo="1" devices="tripinfo_2 routing_2" vType="DEFAULT_VEHTYPE" speedFactor="1.09" vaporized=""/>
    <tripinfo id="11" depart="28840.00" departLane="-484510040#17_0" departPos="5.10" departSpeed="0.00" departDelay="0.40" arrival="28894.00" arrivalLane="-169711276#0_0" arrivalPos="9.15" arrivalSpeed="11.37" duration="54.00" routeLength="610.46" waitingTime="0.00" waitingCount="0" stopTime="0.00" timeLoss="18.11" rerouteNo="1" devices="tripinfo_11 routing_11" vType="DEFAULT_VEHTYPE" speedFactor="1.04" vaporized=""/>
    <tripinfo id="emergency_east_morning.0" depart="28800.00" departLane="1354145734#1_0" departPos="6.60" departSpeed="0.00" departDelay="0.00" arrival="28895.00" arrivalLane="638541495#1_0" arrivalPos="26.02" arrivalSpeed="9.93" duration="95.00" routeLength="625.64" waitingTime="30.00" waitingCount="1" stopTime="0.00" timeLoss="48.11" rerouteNo="1" devices="tripinfo_emergency_east_morning.0 routing_emergency_east_morning.0" vType="emergency" speedFactor="1.30" vaporized=""/>    <tripinfo id="1" depart="28804.00" departLane="-26284183#2_0" departPos="5.10" departSpeed="0.00" departDelay="0.40" arrival="28911.00" arrivalLane="-26284129#7_0" arrivalPos="40.68" arrivalSpeed="19.92" duration="107.00" routeLength="563.24" waitingTime="53.00" waitingCount="1" stopTime="0.00" timeLoss="76.22" rerouteNo="1" devices="tripinfo_1 routing_1" vType="DEFAULT_VEHTYPE" speedFactor="1.06" vaporized=""/>
      <tripinfo id="30" depart="28908.00" departLane="-37110889#1_0" departPos="5.10" departSpeed="0.00" departDelay="0.00" arrival="28911.00" arrivalLane="-37110889#1_0" arrivalPos="11.84" arrivalSpeed="5.91" duration="3.00" routeLength="6.74" waitingTime="0.00" waitingCount="0" stopTime="0.00" timeLoss="2.44" rerouteNo="1" devices="tripinfo_30 routing_30" vType="DEFAULT_VEHTYPE" speedFactor="0.94" vaporized=""/>    <tripinfo id="12" depart="28844.00" departLane="638541497#8_0" departPos="5.10" departSpeed="0.00" departDelay="0.80" arrival="28918.00" arrivalLane="-553250634#1_0" arrivalPos="19.11" arrivalSpeed="7.71" duration="74.00" routeLength="630.48" waitingTime="26.00" waitingCount="1" stopTime="0.00" timeLoss="48.70" rerouteNo="1" devices="tripinfo_12 routing_12" vType="DEFAULT_VEHTYPE" speedFactor="1.08" vaporized=""/>
    <tripinfo id="16" depart="28858.00" departLane="-49687940#3_0" departPos="5.10" departSpeed="0.00" departDelay="0.40" arrival="28938.00" arrivalLane="132907563#3_0" arrivalPos="77.49" arrivalSpeed="13.92" duration="80.00" routeLength="648.84" waitingTime="3.00" waitingCount="1" stopTime="0.00" timeLoss="26.57" rerouteNo="1" devices="tripinfo_16 routing_16" vType="DEFAULT_VEHTYPE" speedFactor="1.08" vaporized=""/>
    <tripinfo id="26" depart="28894.00" departLane="796846477_0" departPos="1.37" departSpeed="0.00" departDelay="0.40" arrival="28940.00" arrivalLane="169711262#7_0" arrivalPos="25.51" arrivalSpeed="12.69" duration="46.00" routeLength="501.35" waitingTime="0.00" waitingCount="0" stopTime="0.00" timeLoss="13.81" rerouteNo="1" devices="tripinfo_26 routing_26" vType="DEFAULT_VEHTYPE" speedFactor="0.97" vaporized=""/>
    <tripinfo id="13" depart="28847.00" departLane="-1227950011_0" departPos="5.10" departSpeed="0.00" departDelay="0.20" arrival="28945.00" arrivalLane="-147545754#1_0" arrivalPos="8.11" arrivalSpeed="14.25" duration="98.00" routeLength="1130.90" waitingTime="0.00" waitingCount="0" stopTime="0.00" timeLoss="21.21" rerouteNo="1" devices="tripinfo_13 routing_13" vType="DEFAULT_VEHTYPE" speedFactor="1.03" vaporized=""/>
    <tripinfo id="9" depart="28833.00" departLane="36853688#1_0" departPos="5.10" departSpeed="0.00" departDelay="0.60" arrival="28948.00" arrivalLane="-1093123616#1_0" arrivalPos="29.39" arrivalSpeed="13.96" duration="115.00" routeLength="947.32" waitingTime="12.00" waitingCount="2" stopTime="0.00" timeLoss="40.68" rerouteNo="1" devices="tripinfo_9 routing_9" vType="DEFAULT_VEHTYPE" speedFactor="1.03" vaporized=""/>
    <tripinfo id="24" depart="28887.00" departLane="169711262#1_0" departPos="0.20" departSpeed="0.00" departDelay="0.60" arrival="28948.00" arrivalLane="169709317#2_0" arrivalPos="1.34" arrivalSpeed="5.36" duration="61.00" routeLength="382.49" waitingTime="2.00" waitingCount="1" stopTime="0.00" timeLoss="25.97" rerouteNo="1" devices="tripinfo_24 routing_24" vType="DEFAULT_VEHTYPE" speedFactor="0.94" vaporized=""/>
     <tripinfo id="8" depart="28829.00" departLane="-213042766#6_0" departPos="5.10" departSpeed="0.00" departDelay="0.20" arrival="28960.00" arrivalLane="169709291#0_0" arrivalPos="158.01" arrivalSpeed="11.87" duration="131.00" routeLength="1471.13" waitingTime="2.00" waitingCount="1" stopTime="0.00" timeLoss="39.07" rerouteNo="1" devices="tripinfo_8 routing_8" vType="DEFAULT_VEHTYPE" speedFactor="0.89" vaporized=""/>
    <tripinfo id="6" depart="28822.00" departLane="-1103062098#1_0" departPos="2.78" departSpeed="0.00" departDelay="0.40" arrival="28961.00" arrivalLane="-217536593_0" arrivalPos="46.13" arrivalSpeed="14.09" duration="139.00" routeLength="679.97" waitingTime="77.00" waitingCount="1" stopTime="0.00" timeLoss="97.79" rerouteNo="1" devices="tripinfo_6 routing_6" vType="DEFAULT_VEHTYPE" speedFactor="1.06" vaporized=""/>
       <tripinfo id="32" depart="28917.00" departLane="484510040#16_0" departPos="5.10" departSpeed="0.00" departDelay="1.80" arrival="28964.00" arrivalLane="-492441116#12_0" arrivalPos="20.67" arrivalSpeed="14.98" duration="47.00" routeLength="514.54" waitingTime="0.00" waitingCount="0" stopTime="0.00" timeLoss="22.68" rerouteNo="1" devices="tripinfo_32 routing_32" vType="DEFAULT_VEHTYPE" speedFactor="1.35" vaporized=""/>     <tripinfo id="8" depart="28829.00" departLane="-213042766#6_0" departPos="5.10" departSpeed="0.00" departDelay="0.20" arrival="28980.00" arrivalLane="169709291#0_0" arrivalPos="158.01" arrivalSpeed="11.72" duration="151.00" routeLength="1471.13" waitingTime="22.00" waitingCount="1" stopTime="0.00" timeLoss="59.25" rerouteNo="1" devices="tripinfo_8 routing_8" vType="DEFAULT_VEHTYPE" speedFactor="0.89" vaporized=    <     <tripinfo id="14" depart="28851.00" departLane="37111253#1_0" departPos="5.10" departSpeed="0.00" departDelay="0.60" arrival="28989.00" arrivalLane="169709308#1_0" arrivalPos="10.62" arrivalSpeed="2.06" duration="138.00" routeLength="1036.15" waitingTime="0.00" waitingCount="0" stopTime="0.00" timeLoss="38.85" rerouteNo="1" devices="tripinfo_14 routing_14" vType="DEFAULT_VEHTYPE" speedFactor="0.94" vaporized=""/>     <tripinfo id="19" depart="28869.00" departLane="213042787#7_0" departPos="4.88" departSpeed="0.00" departDelay="0.60" arrival="28992.00" arrivalLane="-112028496#1_0" arrivalPos="70.93" arrivalSpeed="12.32" duration="123.00" routeLength="1506.58" waitingTime="0.00" waitingCount="0" stopTime="0.00" timeLoss="29.76" rerouteNo="1" devices="tripinfo_19 routing_19" vType="DEFAULT_VEHTYPE" speedFactor="0.97" vaporized    <t    <tripinfo id="25" depart="28890.00" departLane="-169709329#3_0" departPos="4.42" departSpeed="0.00" departDelay="0.00" arrival="28995.00" arrivalLane="26284129#7_0" arrivalPos="40.68" arrivalSpeed="16.63" duration="105.00" routeLength="636.33" waitingTime="34.00" waitingCount="2" stopTime="0.00" timeLoss="55.13" rerouteNo="1" devices="tripinfo_25 routing_25" vType="DEFAULT_VEHTYPE" speedFactor="0.80" vaporized="    <     <tripinfo id="18" depart="28865.00" departLane="464465205#0_0" departPos="5.10" departSpeed="0.00" departDelay="0.20" arrival="29009.00" arrivalLane="147545754#2_0" arrivalPos="103.81" arrivalSpeed="12.49" duration="144.00" routeLength="1478.46" waitingTime="45.00" waitingCount="2" stopTime="0.00" timeLoss="76.62" rerouteNo="1" devices="tripinfo_18 routing_18" vType="DEFAULT_VEHTYPE" speedFactor="0.93" vaporized=""/>
    <tripinfo id="4" depart="28815.00" departLane="-95857804#5_0" departPos="5.10" departSpeed="0.00" departDelay="0.60" arrival="29014.00" arrivalLane="-1103062103_0" arrivalPos="7.15" arrivalSpeed="2.21" duration="199.00" routeLength="1563.51" waitingTime="40.00" waitingCount="1" stopTime="0.00" timeLoss="84.02" rerouteNo="1" devices="tripinfo_4 routing_4" vType="DEFAULT_VEHTYPE" speedFactor="0.91" vaporized=""/>      <tripinfo id="42" depart="28952.00" departLane="-1104891073#0_0" departPos="0.20" departSpeed="0.00" departDelay="0.80" arrival="29016.00" arrivalLane="1058623187#4_1" arrivalPos="23.28" arrivalSpeed="12.59" duration="64.00" routeLength="665.13" waitingTime="0.00" waitingCount="0" stopTime="0.00" timeLoss="10.82" rerouteNo="1" devices="tripinfo_42 routing_42" vType="DEFAULT_VEHTYPE" speedFactor="0.94" vaporized=""/>     <tripinfo id="36" depart="28930.00" departLane="1447075496_0" departPos="5.10" departSpeed="0.00" departDelay="0.40" arrival="29021.00" arrivalLane="492441116#8_0" arrivalPos="115.53" arrivalSpeed="10.76" duration="91.00" routeLength="658.81" waitingTime="0.00" waitingCount="0" stopTime="0.00" timeLoss="23.00" rerouteNo="1" devices="tripinfo_36 routing_36" vType="DEFAULT_VEHTYPE" speedFactor="0.84" vaporized=""/>
    <tripinfo id="21" depart="28876.00" departLane="-1126178462_0" departPos="5.10" departSpeed="0.00" departDela="0.20" arrival="29022.00" arrivalLane="1259587204#1_0" arrivalPos="42.67" arrivalSpeed="29.06" duration="85.00" routeLength="1047.05" waitingTime="0.00" waitingCount="0" stopTime="0.00" timeLoss="30.00" rerouteNo="1" devices="tripinfo_38 routing_38" vType="DEFAULT_VEHTYPE" speedFactor="1.09" vaporized=""/>
    <tripinfo id="40" depart="28944.00" departLane="-132907559#1_0" departPos="5.10" departSpeed="0.00" departDelay="0.00" arrival="29025.00" arrivalLane="169709329#6_0" arrivalPos="70.57" arrivalSpeed="2.83" duration="81.00" routeLength="333.38" waitingTime="0.00" waitingCount="0" stopTime="0.00" timeLoss="21.63" rerouteNo="1" devices="tripinfo_40 routing_40" vType="DEFAULT_VEHTYPE" speedFactor="1.15" vaporized=""/>
    <tripinfo id="21" depart="28876.00" departLane="-1126178462_0" departPos="5.10" departSpeed="0.00" departDelay="0.40" arrival="29028.00" arrivalLane="-328837813#0_0" arrivalPos="31.25" arrivalSpeed="12.63" duration="152.00" routeLength="1825.99" waitingTime="0.00" waitingCount="0" stopTime="0.00" timeLoss="38.45" rerouteNo="1" devices="tripinfo_21 routing_21" vType="DEFAULT_VEHTYPE" speedFactor="0.92" vaporized=""/>     <tripinfo id="52" depart="28988.00" departLane="-37106535#2_0" departPos="5.10" departSpeed="0.00" departDelay="0.80" arrival="29031.00" arrivalLane="169711262#6_0" arrivalPos="0.20" arrivalSpeed="8.27" duration="43.00" routeLength="356.35" waitingTime="0.00" waitingCount="0" stopTime="0.00" timeLoss="14.38" rerouteNo="1" devices="tripinfo_52 routing_52" vType="DEFAULT_VEHTYPE" speedFactor="1.01" vaporized=""/>     <tripinfo id="17" depart="28862.00" departLane="37110887#14_0" departPos="5.10" departSpeed="0.00" departDelay="0.80" arrival="29036.00" arrivalLane="169709327#1_0" arrivalPos="27.11" arrivalSpeed="14.44" duration="174.00" routeLength="687.91" waitingTime="105.00" waitingCount="2" stopTime="0.00" timeLoss="135.95" rerouteNo="1" devices="tripinfo_17 routing_17" vType="DEFAULT_VEHTYPE" speedFactor="1.09" vaporized=    <tripinfo id="17" depart="28862.00" departLane="37110887#14_0" departPos="5.10" departSpeed="0.00" departDelay="0.80" arrival="29040.00" arrivalLane="169709327#1_0" arrivalPos="27.11" arrivalSpeed="12.96" duration="178.00" routeLength="687.91" waitingTime="109.00" waitingCount="2" stopTime="0.00" timeLoss="141.38" rerouteNo="1" devices="tripinfo_17 routing_17" vType="DEFAULT_VEHTYPE" speedFactor="1.09" vaporized=""/>
    <tripinfo id="35" depart="28926.00" departLane="132907562#0_0" departPos="3.31" departSpeed="0.00" departDelay="0.00" arrival="29040.00" arrivalLane="-37110887#6_0" arrivalPos="4.21" arrivalSpeed="14.08" duration="114.00" routeLength="1220.73" waitingTime="1.00" waitingCount="1" stopTime="0.00" timeLoss="36.43" rerouteNo="1" devices="tripinfo_35 routing_35" vType="DEFAULT_VEHTYPE" speedFactor="1.02" vaporized=""/>
     <tripinfo id="41" depart="28948.00" departLane="36257667#13_0" departPos="5.10" departSpeed="0.00" departDelay="0.40" arrival="29042.00" arrivalLane="1103062104#0_0" arrivalPos="0.15" arrivalSpeed="1.74" duration="94.00" routeLength="498.95" waitingTime="0.00" waitingCount="0" stopTime="0.00" timeLoss="25.24" rerouteNo="1" devices="tripinfo_41 routing_41" vType="DEFAULT_VEHTYPE" speedFactor="0.78" vaporized=""/>    <tripinfo id="54" depart="28995.00" departLane="328349209#6_0" departPos="0.94" departSpeed="0.00" departDelay="0.60" arrival="29046.00" arrivalLane="132907557#2_0" arrivalPos="23.64" arrivalSpeed="9.37" duration="51.00" routeLength="514.37" waitingTime="0.00" waitingCount="0" stopTime="0.00" timeLoss="18.65" rerouteNo="1" devices="tripinfo_54 routing_54" vType="DEFAULT_VEHTYPE" speedFactor="0.93" vaporized=""/>
    <tripinfo id="45" depart="28962.00" departLane="-1103060077_0" departPos="5.10" departSpeed="0.00" departDelay="0.00" arrival="29051.00" arrivalLane="26283801#3_1" arrivalPos="184.97" arrivalSpeed="25.70" duration="89.00" routeLength="943.55" waitingTime="0.00" waitingCount="0" stopTime="0.00" timeLoss="29.19" rerouteNo="1" devices="tripinfo_45 routing_45" vType="DEFAULT_VEHTYPE" speedFactor="0.95" vaporized=""/>
    <tripinfo id="63" depart="29027.00" departLane="328349209#9_0" departPos="5.10" departSpeed="0.00" departDelay="0.20" arrival="29053.00" arrivalLane="-169709329#0_0" arrivalPos="5.29" arrivalSpeed="2.68" duration="26.00" routeLength="240.72" waitingTime="0.00" waitingCount="0" stopTime="0.00" timeLoss="10.61" rerouteNo="1" devices="tripinfo_63 routing_63" vType="DEFAULT_VEHTYPE" speedFactor="1.13" vaporized=""/>
       <tripinfo id="59" depart="29013.00" departLane="-37110887#4_0" departPos="0.35" departSpeed="0.00" departDelay="0.60" arrival="29058.00" arrivalLane="-1167882452_0" arrivalPos="36.87" arrivalSpeed="13.11" duration="45.00" routeLength="381.06" waitingTime="0.00" waitingCount="0" stopTime="0.00" timeLoss="12.58" rerouteNo="1" devices="tripinfo_59 routing_59" vType="DEFAULT_VEHTYPE" speedFactor="0.95" vaporized=""/    <tripinfo id="29" depart="28905.00" departLane="-213042787#1_0" departPos="1.24" departSpeed="0.00" departDelay="0.60" arrival="29078.00" arrivalLane="-1103062105_0" arrivalPos="11.97" arrivalSpeed="2.68" duration="173.00" routeLength="1534.82" waitingTime="42.00" waitingCount="1" stopTime="0.00" timeLoss="78.04" rerouteNo="1" devices="tripinfo_29 routing_29" vType="DEFAULT_VEHTYPE" speedFactor="1.03" vaporized=""/>
    <tripinfo id="5" depart="28818.00" departLane="-213042766#4_0" departPos="5.10" departSpeed="0.00" departDelay="0.00" arrival="29082.00" arrivalLane="1227985795_0" arrivalPos="81.75" arrivalSpeed="2.31" duration="264.00" routeLength="1560.62" waitingTime="106.00" waitingCount="2" stopTime="0.00" timeLoss="156.83" rerouteNo="1" devices="tripinfo_5 routing_5" vType="DEFAULT_VEHTYPE" speedFactor="1.04" vaporized=""/>
    <tripinfo id="27" depart="28898.00" departLane="132907557#2_0" departPos="5.10" departSpeed="0.00" departDelay="0.80" arrival="29091.00" arrivalLane="213042786#1_0" arrivalPos="22.29" arrivalSpeed="11.28" duration="193.00" routeLength="1486.01" waitingTime="67.00" waitingCount="2" stopTime="0.00" timeLoss="99.42" rerouteNo="1" devices="tripinfo_27 routing_27" vType="DEFAULT_VEHTYPE" speedFactor="0.87" vaporized=""/>
    <tripinfo id="23" depart="28883.00" departLane="-26284129#5_0" departPos="1.68" departSpeed="0.00" departDelay="0.20" arrival="29093.00" arrivalLane="638541497#15_1" arrivalPos="9.80" arrivalSpeed="33.43" duration="210.00" routeLength="1349.81" waitingTime="121.00" waitingCount="3" stopTime="0.00" timeLoss="166.57" rerouteNo="1" devices="tripinfo_23 routing_23" vType="DEFAULT_VEHTYPE" speedFactor="1.23" vaporized=""/>
    <tripinfo id="31" depart="28912.00" departLane="-188444433#1_0" departPos="5.10" departSpeed="0.00" departDelay="0.40" arrival="29095.00" arrivalLane="638541497#21_1" arrivalPos="63.47" arrivalSpeed="18.67" duration="183.00" routeLength="432.95" waitingTime="136.00" waitingCount="3" stopTime="0.00" timeLoss="163.19" rerouteNo="1" devices="tripinfo_31 routing_31" vType="DEFAULT_VEHTYPE" speedFactor="0.99" vaporized=""/>    <tripinfo id="31" depart="28912.00" departLane="-188444433#1_0" departPos="5.10" departSpeed="0.00" departDelay="0.40" arrival="29096.00" arrivalLane="638541497#21_1" arrivalPos="63.47" arrivalSpeed="18.74" duration="184.00" routeLength="432.95" waitingTime="136.00" waitingCount="3" stopTime="0.00" timeLoss="164.46" rerouteNo="1" devices="tripinfo_31 routing_31" vType="DEFAULT_VEHTYPE" speedFactor="0.99" vaporized=""/>    <tripinfo id="53" depart="28991.00" departLane="169709296_0" departPos="5.10" departSpeed="0.00" departDelay="0.20" arrival="29096.00" arrivalLane="-169711272#1_0" arrivalPos="18.70" arrivalSpeed="10.28" duration="105.00" routeLength="715.61" waitingTime="3.00" waitingCount="1" stopTime="0.00" timeLoss="35.33" rerouteNo="1" devices="tripinfo_53 routing_53" vType="DEFAULT_VEHTYPE" speedFactor="1.10" vaporized=""/>       <tripinfo id="15" depart="28854.00" departLane="366994282_0" departPos="5.10" departSpeed="0.00" departDelay="0.00" arrival="29099.00" arrivalLane="26284129#8_0" arrivalPos="38.45" arrivalSpeed="23.92" duration="245.00" routeLength="1661.61" waitingTime="106.00" waitingCount="2" stopTime="0.00" timeLoss="157.56" rerouteNo="1" devices="tripinfo_15 routing_15" vType="DEFAULT_VEHTYPE" speedFactor="1.09" vaporized=""/       <tripinfo id="68" depart="29045.00" departLane="-169711281#0_0" departPos="5.10" departSpeed="0.00" departDelay="0.20" arrival="29104.00" arrivalLane="-492441116#10_0" arrivalPos="32.60" arrivalSpeed="11.22" duration="59.00" routeLength="498.86" waitingTime="0.00" waitingCount="0" stopTime="0.00" timeLoss="13.25" rerouteNo="1" devices="tripinfo_68 routing_68" vType="DEFAULT_VEHTYPE" speedFactor="0.87" vaporized=""/      <tripinfo id="62" depart="29024.00" departLane="-112028496#1_0" departPos="5.10" departSpeed="0.00" departDelay="0.80" arrival="29118.00" arrivalLane="328349209#9_0" arrivalPos="20.69" arrivalSpeed="27.30" duration="94.00" routeLength="849.50" waitingTime="8.00" waitingCount="2" stopTime="0.00" timeLoss="33.83" rerouteNo="1" devices="tripinfo_62 routing_62" vType="DEFAULT_VEHTYPE" speedFactor="1.03" vaporized=""/>      <tripinfo id="73" depart="29063.00" departLane="-213042787#2_0" departPos="5.10" departSpeed="0.00" departDelay="0.20" arrival="29129.00" arrivalLane="-26284129#4_0" arrivalPos="61.30" arrivalSpeed="22.93" duration="66.00" routeLength="840.36" waitingTime="0.00" waitingCount="0" stopTime="0.00" timeLoss="18.98" rerouteNo="1" devices="tripinfo_73 routing_73" vType="DEFAULT_VEHTYPE" speedFactor="1.04" vaporized=""/>       <tripinfo id="43" depart="28955.00" departLane="95857804#4_0" departPos="5.10" departSpeed="0.00" departDelay="0.20" arrival="29132.00" arrivalLane="131388427#6_0" arrivalPos="16.81" arrivalSpeed="9.81" duration="177.00" routeLength="1944.74" waitingTime="0.00" waitingCount="0" stopTime="0.00" timeLoss="36.57" rerouteNo="1" devices="tripinfo_43 routing_43" vType="DEFAULT_VEHTYPE" speedFactor="0.79" vaporized=""/>      <tripinfo id="72" depart="29060.00" departLane="-484510040#15_0" departPos="0.20" departSpeed="0.00" departDelay="0.80" arrival="29140.00" arrivalLane="169709291#0_0" arrivalPos="158.01" arrivalSpeed="16.04" duration="80.00" routeLength="906.40" waitingTime="0.00" waitingCount="0" stopTime="0.00" timeLoss="29.36" rerouteNo="1" devices="tripinfo_72 routing_72" vType="DEFAULT_VEHTYPE" speedFactor="1.16" vaporized=""/>      <tripinfo id="64" depart="29031.00" departLane="1103089069_0" departPos="5.10" departSpeed="0.00" departDelay="0.60" arrival="29142.00" arrivalLane="132907563#1_0" arrivalPos="0.20" arrivalSpeed="10.30" duration="111.00" routeLength="1439.73" waitingTime="0.00" waitingCount="0" stopTime="0.00" timeLoss="40.76" rerouteNo="1" devices="tripinfo_64 routing_64" vType="DEFAULT_VEHTYPE" speedFactor="1.07" vaporized=""/>    <tripinfo id="64" depart="29031.00" departLane="1103089069_0" departPos="5.10" departSpeed="0.00" departDelay="0.60" arrival="29142.00" arrivalLane="132907563#1_0" arrivalPos="0.20" arrivalSpeed="10.51" duration="111.00" routeLength="1439.73" waitingTime="0.00" waitingCount="0" stopTime="0.00" timeLoss="40.51" rerouteNo="1" devices="tripinfo_64 routing_64" vType="DEFAULT_VEHTYPE" speedFactor="1.07" vaporized=""/>
    <tripinfo id="34" depart="28923.00" departLane="-26284129#3_0" departPos="5.10" departSpeed="0.00" departDelay="0.60" arrival="29146.00" arrivalLane="-37106518#1_0" arrivalPos="41.88" arrivalSpeed="11.86" duration="223.00" routeLength="800.86" waitingTime="137.00" waitingCount="3" stopTime="0.00" timeLoss="172.25" rerouteNo="1" devices="tripinfo_34 routing_34" vType="DEFAULT_VEHTYPE" speedFactor="0.92" vaporized=""/>
      <tripinfo id="33" depart="28919.00" departLane="169711262#9_0" departPos="5.10" departSpeed="0.00" departDelay="0.20" arrival="29159.00" arrivalLane="1101271053_0" arrivalPos="0.20" arrivalSpeed="6.65" duration="240.00" routeLength="1452.41" waitingTime="111.00" waitingCount="3" stopTime="0.00" timeLoss="151.05" rerouteNo="1" devices="tripinfo_33 routing_33" vType="DEFAULT_VEHTYPE" speedFactor="0.87" vaporized=""/>      <tripinfo id="76" depart="29074.00" departLane="437169586#0_0" departPos="0.20" departSpeed="0.00" departDelay="0.40" arrival="29161.00" arrivalLane="-132907557#2_0" arrivalPos="25.60" arrivalSpeed="11.48" duration="87.00" routeLength="832.86" waitingTime="0.00" waitingCount="0" stopTime="0.00" timeLoss="16.04" rerouteNo="1" devices="tripinfo_76 routing_76" vType="DEFAULT_VEHTYPE" speedFactor="0.85" vaporized=""/      <tripinfo id="76" depart="29074.00" departLane="437169586#0_0" departPos="0.20" departSpeed="0.00" departDelay="0.40" arrival="29162.00" arrivalLane="-132907557#2_0" arrivalPos="25.60" arrivalSpeed="10.38" duration="88.00" routeLength="832.86" waitingTime="0.00" waitingCount="0" stopTime="0.00" timeLoss="16.51" rerouteNo="1" devices="tripinfo_76 routing_76" vType="DEFAULT_VEHTYPE" speedFactor="0.85" vaporized=""/>    <tripinfo id="82" depart="29096.00" departLane="-128515257#2_0" departPos="5.10" departSpeed="0.00" departDelay="0.80" arrival="29169.00" arrivalLane="1103089067_0" arrivalPos="21.36" arrivalSpeed="1.80" duration="73.00" routeLength="687.14" waitingTime="0.00" waitingCount="0" stopTime="0.00" timeLoss="19.83" rerouteNo="1" devices="tripinfo_82 routing_82" vType="DEFAULT_VEHTYPE" speedFactor="0.92" vaporized=""/>
    <tripinfo id="78" depart="29081.00" departLane="-213042766#0_0" departPos="5.10" departSpeed="0.00" departDelay="0.20" arrival="29176.00" arrivalLane="-169709329#4_0" arrivalPos="6.48" arrivalSpeed="2.56" duration="95.00" routeLength="1319.18" waitingTime="0.00" waitingCount="0" stopTime="0.00" timeLoss="32.57" rerouteNo="1" devices="tripinfo_78 routing_78" vType="DEFAULT_VEHTYPE" speedFactor="1.14" vaporized=""/>
    <tripinfo id="80" depart="29088.00" departLane="1103080112_0" departPos="5.10" departSpeed="0.00" departDelay="0.00" arrival="29179.00" arrivalLane="36257667#12_0" arrivalPos="45.57" arrivalSpeed="18.16" duration="91.00" routeLength="831.88" waitingTime="0.00" waitingCount="0" stopTime="0.00" timeLoss="27.83" rerouteNo="1" devices="tripinfo_80 routing_80" vType="DEFAULT_VEHTYPE" speedFactor="0.96" vaporized=""/>
    <tripinfo id="70" depart="29052.00" departLane="1058623188#0_0" departPos="0.20" departSpeed="0.00" departDelay="0.00" arrival="29184.00" arrivalLane="130121747#3_0" arrivalPos="94.00" arrivalSpeed="25.41" duration="132.00" routeLength="1368.79" waitingTime="41.00" waitingCount="2" stopTime="0.00" timeLoss="67.80" rerouteNo="1" devices="tripinfo_70 routing_70" vType="DEFAULT_VEHTYPE" speedFactor="0.92" vaporized=""/>
    <tripinfo id="79" depart="29085.00" departLane="638541497#12_0" departPos="5.10" departSpeed="0.00" departDelay="0.60" arrival="29185.00" arrivalLane="138980166#1_1" arrivalPos="205.54" arrivalSpeed="30.71" duration="100.00" routeLength="1616.66" waitingTime="10.00" waitingCount="1" stopTime="0.00" timeLoss="44.70" rerouteNo="1" devices="tripinfo_79 routing_79" vType="DEFAULT_VEHTYPE" speedFactor="1.11" vaporized=""/       <tripinfo id="27" depart="28903.00" departLane="132907557#2_0" departPos="5.10" departSpeed="0.00" departDelay="5.80" arrival="29191.00" arrivalLane="213042786#1_0" arrivalPos="22.29" arrivalSpeed="11.77" duration="288.00" routeLength="1486.01" waitingTime="152.00" waitingCount="2" stopTime="0.00" timeLoss="194.66" rerouteNo="1" devices="tripinfo_27 routing_27" vType="DEFAULT_VEHTYPE" speedFactor="0.87" vaporized=""/>
    <tripinfo id="74" depart="29067.00" departLane="-112028496#3_0" departPos="5.10" departSpeed="0.00" departDelay="0.60" arrival="29194.00" arrivalLane="169709337#0_0" arrivalPos="24.83" arrivalSpeed="3.12" duration="127.00" routeLength="1045.20" waitingTime="28.00" waitingCount="2" stopTime="0.00" timeLoss="56.55" rerouteNo="1" devices="tripinfo_74 routing_74" vType="DEFAULT_VEHTYPE" speedFactor="1.17" vaporized=""/>