<?xml version="1.0" encoding="UTF-8"?>

<!-- generated on 2025-11-17 23:07:57 by Eclipse SUMO sumo Version 1.19.0
<configuration xmlns:xsi="http://www.w3.org/2001/XMLSchema-instance" xsi:noNamespaceSchemaLocation="http://sumo.dlr.de/xsd/sumoConfiguration.xsd">

    <input>
        <net-file value="C:\Users\galad\Downloads\college\sumo-traffic-rl-project\SUMO_Trinity_Traffic_sim\osm_network.xml"/>
        <route-files value="C:\Users\galad\Downloads\college\sumo-traffic-rl-project\SUMO_Trinity_Traffic_sim\test_mg_road.rou.xml,C:\Users\galad\Downloads\college\sumo-traffic-rl-project\SUMO_Trinity_Traffic_sim\ test_background.rou.xml"/>
        <additional-files value="C:\Users\galad\Downloads\college\sumo-traffic-rl-project\SUMO_Trinity_Traffic_sim\vehicle_classes.add.xml,C:\Users\galad\Downloads\college\sumo-traffic-rl-project\SUMO_Trinity_Traffic_sim\osm.poly.xml.gz"/>
    </input>

    <output>
        <tripinfo-output value="C:\Users\galad\Downloads\college\sumo-traffic-rl-project\SUMO_Trinity_Traffic_sim\tripinfo.xml"/>
    </output>

    <processing>
        <ignore-route-errors value="true"/>
        <tls.actuated.jam-threshold value="30"/>
    </processing>

    <routing>
        <device.rerouting.adaptation-steps value="18"/>
        <device.rerouting.adaptation-interval value="10"/>
    </routing>

    <report>
        <verbose value="false"/>
        <no-warnings value="true"/>
        <duration-log.statistics value="true"/>
        <no-step-log value="true"/>
    </report>

    <traci_server>
        <remote-port value="61501"/>
    </traci_server>

    <gui_only>
        <gui-settings-file value="C:\Users\galad\Downloads\college\sumo-traffic-rl-project\SUMO_Trinity_Traffic_sim\osm.view.xml"/>
        <quit-on-end value="true"/>
    </gui_only>

</configuration>
-->

<tripinfos xmlns:xsi="http://www.w3.org/2001/XMLSchema-instance" xsi:noNamespaceSchemaLocation="http://sumo.dlr.de/xsd/tripinfo_file.xsd">
    <tripinfo id="from_east_right_turn_morning_peak.0" depart="5.00" departLane="1354145734#1_0" departPos="2.30" departSpeed="0.00" departDelay="5.00" arrival="30.00" arrivalLane="328349209#9_1" arrivalPos="20.69" arrivalSpeed="30.64" duration="25.00" routeLength="366.20" waitingTime="1.00" waitingCount="1" stopTime="0.00" timeLoss="12.04" rerouteNo="1" devices="tripinfo_from_east_right_turn_morning_peak.0 routing_from_east_right_turn_morning_peak.0" vType="motorcycle" speedFactor="1.12" vaporized=""/>
    <tripinfo id="from_east_left_turn_morning_peak.0" depart="3.00" departLane="1354145734#1_0" departPos="5.10" departSpeed="0.00" departDelay="3.00" arrival="31.00" arrivalLane="1148421491#1_0" arrivalPos="44.65" arrivalSpeed="7.39" duration="28.00" routeLength="287.98" waitingTime="0.00" waitingCount="0" stopTime="0.00" timeLoss="9.71" rerouteNo="1" devices="tripinfo_from_east_left_turn_morning_peak.0 routing_from_east_left_turn_morning_peak.0" vType="car" speedFactor="0.92" vaporized=""/>
    <tripinfo id="0" depart="0.00" departLane="169709329#5_0" departPos="5.10" departSpeed="0.00" departDelay="0.00" arrival="44.00" arrivalLane="-1103062099#1_0" arrivalPos="7.64" arrivalSpeed="10.32" duration="44.00" routeLength="124.30" waitingTime="0.00" waitingCount="0" stopTime="0.00" timeLoss="11.41" rerouteNo="1" devices="tripinfo_0 routing_0" vType="DEFAULT_VEHTYPE" speedFactor="0.83" vaporized=""/>
    <tripinfo id="3" depart="11.00" departLane="491106117#3_0" departPos="5.10" departSpeed="0.00" departDelay="0.20" arrival="48.00" arrivalLane="-132907566#1_0" arrivalPos="45.08" arrivalSpeed="13.57" duration="37.00" routeLength="335.30" waitingTime="0.00" waitingCount="0" stopTime="0.00" timeLoss="11.12" rerouteNo="1" devices="tripinfo_3 routing_3" vType="DEFAULT_VEHTYPE" speedFactor="1.03" vaporized=""/>
    <tripinfo id="from_east_left_turn_morning_peak.1" depart="20.00" departLane="1354145734#1_0" departPos="12.10" departSpeed="0.00" departDelay="13.63" arrival="52.00" arrivalLane="1148421491#1_0" arrivalPos="44.65" arrivalSpeed="8.05" duration="32.00" routeLength="280.98" waitingTime="0.00" waitingCount="0" stopTime="0.00" timeLoss="14.57" rerouteNo="1" devices="tripinfo_from_east_left_turn_morning_peak.1 routing_from_east_left_turn_morning_peak.1" vType="bus" speedFactor="1.00" vaporized=""/>
    <tripinfo id="from_west_straight_morning_peak.0" depart="0.00" departLane="263812623#1_0" departPos="2.30" departSpeed="0.00" departDelay="0.00" arrival="54.00" arrivalLane="638541497#16_0" arrivalPos="109.58" arrivalSpeed="29.28" duration="54.00" routeLength="1048.79" waitingTime="0.00" waitingCount="0" stopTime="0.00" timeLoss="5.65" rerouteNo="1" devices="tripinfo_from_west_straight_morning_peak.0 routing_from_west_straight_morning_peak.0" vType="motorcycle" speedFactor="1.08" vaporized=""/>
    <tripinfo id="from_west_left_turn_morning_peak.0" depart="1.00" departLane="263812623#1_0" departPos="5.10" departSpeed="0.00" departDelay="1.00" arrival="54.00" arrivalLane="328349209#9_0" arrivalPos="20.69" arrivalSpeed="25.29" duration="53.00" routeLength="674.73" waitingTime="0.00" waitingCount="0" stopTime="0.00" timeLoss="11.64" rerouteNo="1" devices="tripinfo_from_west_left_turn_morning_peak.0 routing_from_west_left_turn_morning_peak.0" vType="car" speedFactor="0.94" vaporized=""/>
    <tripinfo id="1" depart="4.00" departLane="-26284183#2_0" departPos="5.10" departSpeed="0.00" departDelay="0.40" arrival="55.00" arrivalLane="-26284129#7_0" arrivalPos="40.68" arrivalSpeed="18.14" duration="51.00" routeLength="563.24" waitingTime="0.00" waitingCount="0" stopTime="0.00" timeLoss="20.11" rerouteNo="1" devices="tripinfo_1 routing_1" vType="DEFAULT_VEHTYPE" speedFactor="1.05" vaporized=""/>
    <tripinfo id="from_east_right_turn_morning_peak.1" depart="24.00" departLane="1354145734#1_0" departPos="5.10" departSpeed="0.00" departDelay="17.63" arrival="55.00" arrivalLane="328349209#9_1" arrivalPos="20.69" arrivalSpeed="26.50" duration="31.00" routeLength="363.40" waitingTime="0.00" waitingCount="0" stopTime="0.00" timeLoss="16.63" rerouteNo="1" devices="tripinfo_from_east_right_turn_morning_peak.1 routing_from_east_right_turn_morning_peak.1" vType="auto" speedFactor="0.97" vaporized=""/>
    <tripinfo id="from_east_left_turn_morning_peak.2" depart="34.00" departLane="1354145734#1_0" departPos="5.10" departSpeed="0.00" departDelay="21.26" arrival="65.00" arrivalLane="1148421491#1_0" arrivalPos="44.65" arrivalSpeed="7.01" duration="31.00" routeLength="287.98" waitingTime="0.00" waitingCount="0" stopTime="0.00" timeLoss="13.37" rerouteNo="1" devices="tripinfo_from_east_left_turn_morning_peak.2 routing_from_east_left_turn_morning_peak.2" vType="auto" speedFactor="0.99" vaporized=""/>
    <tripinfo id="from_west_right_turn_morning_peak.0" depart="2.00" departLane="263812623#1_0" departPos="2.30" departSpeed="0.00" departDelay="2.00" arrival="68.00" arrivalLane="1148421491#1_0" arrivalPos="44.65" arrivalSpeed="8.27" duration="66.00" routeLength="501.63" waitingTime="16.00" waitingCount="1" stopTime="0.00" timeLoss="28.11" rerouteNo="1" devices="tripinfo_from_west_right_turn_morning_peak.0 routing_from_west_right_turn_morning_peak.0" vType="motorcycle" speedFactor="1.02" vaporized=""/>
    <tripinfo id="from_south_left_turn_morning_peak.0" depart="1.00" departLane="638541493#1_0" departPos="12.10" departSpeed="0.00" departDelay="1.00" arrival="68.00" arrivalLane="638541495#2_0" arrivalPos="30.24" arrivalSpeed="7.93" duration="67.00" routeLength="494.00" waitingTime="0.00" waitingCount="0" stopTime="0.00" timeLoss="10.45" rerouteNo="1" devices="tripinfo_from_south_left_turn_morning_peak.0 routing_from_south_left_turn_morning_peak.0" vType="bus" speedFactor="1.00" vaporized=""/>
    <tripinfo id="from_west_left_turn_morning_peak.1" depart="13.00" departLane="263812623#1_0" departPos="5.10" departSpeed="0.00" departDelay="7.44" arrival="68.00" arrivalLane="328349209#9_0" arrivalPos="20.69" arrivalSpeed="26.67" duration="55.00" routeLength="674.73" waitingTime="0.00" waitingCount="0" stopTime="0.00" timeLoss="17.72" rerouteNo="1" devices="tripinfo_from_west_left_turn_morning_peak.1 routing_from_west_left_turn_morning_peak.1" vType="auto" speedFactor="1.07" vaporized=""/>
    <tripinfo id="from_east_straight_morning_peak.0" depart="0.00" departLane="1354145734#1_0" departPos="5.10" departSpeed="0.00" departDelay="0.00" arrival="69.00" arrivalLane="638541495#1_1" arrivalPos="26.02" arrivalSpeed="8.66" duration="69.00" routeLength="627.14" waitingTime="0.00" waitingCount="0" stopTime="0.00" timeLoss="10.84" rerouteNo="1" devices="tripinfo_from_east_straight_morning_peak.0 routing_from_east_straight_morning_peak.0" vType="auto" speedFactor="1.05" vaporized=""/>
    <tripinfo id="from_west_straight_morning_peak.1" depart="4.00" departLane="263812623#1_0" departPos="5.10" departSpeed="0.00" departDelay="2.81" arrival="69.00" arrivalLane="638541497#16_0" arrivalPos="109.58" arrivalSpeed="23.24" duration="65.00" routeLength="1045.99" waitingTime="0.00" waitingCount="0" stopTime="0.00" timeLoss="9.51" rerouteNo="1" devices="tripinfo_from_west_straight_morning_peak.1 routing_from_west_straight_morning_peak.1" vType="car" speedFactor="0.94" vaporized=""/>
    <tripinfo id="from_west_straight_morning_peak.2" depart="6.00" departLane="263812623#1_0" departPos="5.10" departSpeed="0.00" departDelay="3.62" arrival="69.00" arrivalLane="638541497#16_1" arrivalPos="109.58" arrivalSpeed="23.02" duration="63.00" routeLength="1045.99" waitingTime="0.00" waitingCount="0" stopTime="0.00" timeLoss="11.61" rerouteNo="1" devices="tripinfo_from_west_straight_morning_peak.2 routing_from_west_straight_morning_peak.2" vType="car" speedFactor="1.02" vaporized=""/>
    <tripinfo id="7" depart="26.00" departLane="169711262#3_0" departPos="5.10" departSpeed="0.00" departDelay="0.80" arrival="70.00" arrivalLane="132907562#1_0" arrivalPos="14.25" arrivalSpeed="11.99" duration="44.00" routeLength="481.87" waitingTime="0.00" waitingCount="0" stopTime="0.00" timeLoss="7.72" rerouteNo="1" devices="tripinfo_7 routing_7" vType="DEFAULT_VEHTYPE" speedFactor="1.03" vaporized=""/>
    <tripinfo id="from_west_right_turn_morning_peak.1" depart="16.00" departLane="263812623#1_0" departPos="2.30" departSpeed="0.00" departDelay="10.44" arrival="70.00" arrivalLane="1148421491#1_0" arrivalPos="44.65" arrivalSpeed="6.88" duration="54.00" routeLength="501.63" waitingTime="3.00" waitingCount="1" stopTime="0.00" timeLoss="16.89" rerouteNo="1" devices="tripinfo_from_west_right_turn_morning_peak.1 routing_from_west_right_turn_morning_peak.1" vType="motorcycle" speedFactor="1.02" vaporized=""/>
    <tripinfo id="from_west_straight_morning_peak.3" depart="8.00" departLane="263812623#1_0" departPos="2.30" departSpeed="0.00" departDelay="4.42" arrival="71.00" arrivalLane="638541497#16_0" arrivalPos="109.58" arrivalSpeed="27.33" duration="63.00" routeLength="1048.79" waitingTime="0.00" waitingCount="0" stopTime="0.00" timeLoss="10.45" rerouteNo="1" devices="tripinfo_from_west_straight_morning_peak.3 routing_from_west_straight_morning_peak.3" vType="motorcycle" speedFactor="1.01" vaporized=""/>
    <tripinfo id="from_west_straight_morning_peak.4" depart="10.00" departLane="263812623#1_0" departPos="5.10" departSpeed="0.00" departDelay="5.23" arrival="71.00" arrivalLane="638541497#16_1" arrivalPos="109.58" arrivalSpeed="25.38" duration="61.00" routeLength="1045.99" waitingTime="0.00" waitingCount="0" stopTime="0.00" timeLoss="14.16" rerouteNo="1" devices="tripinfo_from_west_straight_morning_peak.4 routing_from_west_straight_morning_peak.4" vType="car" speedFactor="1.12" vaporized=""/>
    <tripinfo id="from_west_straight_morning_peak.5" depart="11.00" departLane="263812623#1_0" departPos="5.10" departSpeed="0.00" departDelay="5.04" arrival="76.00" arrivalLane="638541497#16_0" arrivalPos="109.58" arrivalSpeed="24.29" duration="65.00" routeLength="1045.99" waitingTime="0.00" waitingCount="0" stopTime="0.00" timeLoss="7.77" rerouteNo="1" devices="tripinfo_from_west_straight_morning_peak.5 routing_from_west_straight_morning_peak.5" vType="car" speedFactor="0.92" vaporized=""/>
    <tripinfo id="from_west_straight_morning_peak.8" depart="21.00" departLane="263812623#1_0" departPos="2.30" departSpeed="0.00" departDelay="11.46" arrival="76.00" arrivalLane="638541497#16_1" arrivalPos="109.58" arrivalSpeed="30.83" duration="55.00" routeLength="1048.79" waitingTime="0.00" waitingCount="0" stopTime="0.00" timeLoss="8.78" rerouteNo="1" devices="tripinfo_from_west_straight_morning_peak.8 routing_from_west_straight_morning_peak.8" vType="motorcycle" speedFactor="1.14" vaporized=""/>
    <tripinfo id="from_west_right_turn_morning_peak.2" depart="27.00" departLane="263812623#1_0" departPos="6.60" departSpeed="0.00" departDelay="15.87" arrival="76.00" arrivalLane="1148421491#1_0" arrivalPos="44.65" arrivalSpeed="3.68" duration="49.00" routeLength="497.33" waitingTime="0.00" waitingCount="0" stopTime="0.00" timeLoss="10.60" rerouteNo="1" devices="tripinfo_from_west_right_turn_morning_peak.2 routing_from_west_right_turn_morning_peak.2" vType="ambulance" speedFactor="1.00" vaporized=""/>
    <tripinfo id="from_south_left_turn_morning_peak.1" depart="8.00" departLane="638541493#1_0" departPos="2.30" departSpeed="0.00" departDelay="0.24" arrival="77.00" arrivalLane="638541495#2_0" arrivalPos="30.24" arrivalSpeed="8.15" duration="69.00" routeLength="503.80" waitingTime="0.00" waitingCount="0" stopTime="0.00" timeLoss="14.64" rerouteNo="1" devices="tripinfo_from_south_left_turn_morning_peak.1 routing_from_south_left_turn_morning_peak.1" vType="motorcycle" speedFactor="1.05" vaporized=""/>
    <tripinfo id="from_west_left_turn_morning_peak.2" depart="25.00" departLane="263812623#1_0" departPos="2.30" departSpeed="0.00" departDelay="13.87" arrival="77.00" arrivalLane="328349209#9_0" arrivalPos="20.69" arrivalSpeed="27.81" duration="52.00" routeLength="677.53" waitingTime="0.00" waitingCount="0" stopTime="0.00" timeLoss="14.88" rerouteNo="1" devices="tripinfo_from_west_left_turn_morning_peak.2 routing_from_west_left_turn_morning_peak.2" vType="motorcycle" speedFactor="1.07" vaporized=""/>
    <tripinfo id="from_east_straight_morning_peak.1" depart="6.00" departLane="1354145734#1_0" departPos="2.30" departSpeed="0.00" departDelay="4.64" arrival="79.00" arrivalLane="638541495#1_0" arrivalPos="26.02" arrivalSpeed="7.36" duration="73.00" routeLength="629.94" waitingTime="0.00" waitingCount="0" stopTime="0.00" timeLoss="17.36" rerouteNo="1" devices="tripinfo_from_east_straight_morning_peak.1 routing_from_east_straight_morning_peak.1" vType="motorcycle" speedFactor="1.10" vaporized=""/>
    <tripinfo id="from_west_straight_morning_peak.9" depart="23.00" departLane="263812623#1_0" departPos="5.10" departSpeed="0.00" departDelay="12.27" arrival="79.00" arrivalLane="638541497#16_1" arrivalPos="109.58" arrivalSpeed="31.08" duration="56.00" routeLength="1045.99" waitingTime="0.00" waitingCount="0" stopTime="0.00" timeLoss="10.29" rerouteNo="1" devices="tripinfo_from_west_straight_morning_peak.9 routing_from_west_straight_morning_peak.9" vType="car" speedFactor="1.14" vaporized=""/>
    <tripinfo id="from_west_straight_morning_peak.11" depart="28.00" departLane="263812623#1_0" departPos="2.30" departSpeed="0.00" departDelay="14.89" arrival="80.00" arrivalLane="638541497#16_1" arrivalPos="109.58" arrivalSpeed="32.45" duration="52.00" routeLength="1048.79" waitingTime="0.00" waitingCount="0" stopTime="0.00" timeLoss="10.11" rerouteNo="1" devices="tripinfo_from_west_straight_morning_peak.11 routing_from_west_straight_morning_peak.11" vType="motorcycle" speedFactor="1.25" vaporized=""/>
    <tripinfo id="10" depart="36.00" departLane="36257667#9_0" departPos="5.10" departSpeed="0.00" departDelay="0.00" arrival="83.00" arrivalLane="213087089_0" arrivalPos="91.98" arrivalSpeed="12.00" duration="47.00" routeLength="437.32" waitingTime="0.00" waitingCount="0" stopTime="0.00" timeLoss="9.09" rerouteNo="1" devices="tripinfo_10 routing_10" vType="DEFAULT_VEHTYPE" speedFactor="0.89" vaporized=""/>
    <tripinfo id="from_east_straight_morning_peak.2" depart="9.00" departLane="1354145734#1_0" departPos="12.10" departSpeed="0.00" departDelay="6.27" arrival="84.00" arrivalLane="638541495#1_0" arrivalPos="26.02" arrivalSpeed="8.32" duration="75.00" routeLength="620.14" waitingTime="0.00" waitingCount="0" stopTime="0.00" timeLoss="15.11" rerouteNo="1" devices="tripinfo_from_east_straight_morning_peak.2 routing_from_east_straight_morning_peak.2" vType="bus" speedFactor="1.00" vaporized=""/>
    <tripinfo id="from_west_left_turn_morning_peak.3" depart="36.00" departLane="263812623#1_0" departPos="2.30" departSpeed="0.00" departDelay="19.31" arrival="87.00" arrivalLane="328349209#9_0" arrivalPos="20.69" arrivalSpeed="25.48" duration="51.00" routeLength="677.53" waitingTime="0.00" waitingCount="0" stopTime="0.00" timeLoss="10.97" rerouteNo="1" devices="tripinfo_from_west_left_turn_morning_peak.3 routing_from_west_left_turn_morning_peak.3" vType="motorcycle" speedFactor="0.98" vaporized=""/>
    <tripinfo id="from_west_straight_morning_peak.10" depart="24.00" departLane="263812623#1_0" departPos="2.30" departSpeed="0.00" departDelay="12.08" arrival="89.00" arrivalLane="638541497#16_1" arrivalPos="109.58" arrivalSpeed="26.09" duration="65.00" routeLength="1048.79" waitingTime="0.00" waitingCount="0" stopTime="0.00" timeLoss="9.19" rerouteNo="1" devices="tripinfo_from_west_straight_morning_peak.10 routing_from_west_straight_morning_peak.10" vType="motorcycle" speedFactor="0.95" vaporized=""/>
    <tripinfo id="from_west_straight_morning_peak.6" depart="18.00" departLane="263812623#1_0" departPos="2.30" departSpeed="0.00" departDelay="10.85" arrival="90.00" arrivalLane="638541497#16_0" arrivalPos="109.58" arrivalSpeed="21.08" duration="72.00" routeLength="1048.79" waitingTime="0.00" waitingCount="0" stopTime="0.00" timeLoss="9.03" rerouteNo="1" devices="tripinfo_from_west_straight_morning_peak.6 routing_from_west_straight_morning_peak.6" vType="motorcycle" speedFactor="0.83" vaporized=""/>
    <tripinfo id="from_west_straight_morning_peak.13" depart="31.00" departLane="263812623#1_0" departPos="2.30" departSpeed="0.00" departDelay="15.50" arrival="90.00" arrivalLane="638541497#16_1" arrivalPos="109.58" arrivalSpeed="28.09" duration="59.00" routeLength="1048.79" waitingTime="0.00" waitingCount="0" stopTime="0.00" timeLoss="11.09" rerouteNo="1" devices="tripinfo_from_west_straight_morning_peak.13 routing_from_west_straight_morning_peak.13" vType="motorcycle" speedFactor="1.10" vaporized=""/>
    <tripinfo id="from_west_right_turn_morning_peak.3" depart="38.00" departLane="263812623#1_0" departPos="5.10" departSpeed="0.00" departDelay="21.31" arrival="90.00" arrivalLane="1148421491#1_0" arrivalPos="44.65" arrivalSpeed="6.90" duration="52.00" routeLength="498.83" waitingTime="0.00" waitingCount="0" stopTime="0.00" timeLoss="12.07" rerouteNo="1" devices="tripinfo_from_west_right_turn_morning_peak.3 routing_from_west_right_turn_morning_peak.3" vType="auto" speedFactor="0.97" vaporized=""/>
    <tripinfo id="from_west_straight_morning_peak.7" depart="20.00" departLane="263812623#1_0" departPos="2.30" departSpeed="0.00" departDelay="11.66" arrival="92.00" arrivalLane="638541497#16_0" arrivalPos="109.58" arrivalSpeed="22.49" duration="72.00" routeLength="1048.79" waitingTime="0.00" waitingCount="0" stopTime="0.00" timeLoss="10.31" rerouteNo="1" devices="tripinfo_from_west_straight_morning_peak.7 routing_from_west_straight_morning_peak.7" vType="motorcycle" speedFactor="0.86" vaporized=""/>
    <tripinfo id="from_west_straight_morning_peak.12" depart="30.00" departLane="263812623#1_0" departPos="5.10" departSpeed="0.00" departDelay="15.70" arrival="94.00" arrivalLane="638541497#16_0" arrivalPos="109.58" arrivalSpeed="25.86" duration="64.00" routeLength="1045.99" waitingTime="0.00" waitingCount="0" stopTime="0.00" timeLoss="12.13" rerouteNo="1" devices="tripinfo_from_west_straight_morning_peak.12 routing_from_west_straight_morning_peak.12" vType="auto" speedFactor="1.01" vaporized=""/>
    <tripinfo id="from_west_right_turn_morning_peak.4" depart="48.00" departLane="263812623#1_0" departPos="2.30" departSpeed="0.00" departDelay="25.74" arrival="94.00" arrivalLane="1148421491#1_0" arrivalPos="44.65" arrivalSpeed="6.90" duration="46.00" routeLength="501.63" waitingTime="0.00" waitingCount="0" stopTime="0.00" timeLoss="7.77" rerouteNo="1" devices="tripinfo_from_west_right_turn_morning_peak.4 routing_from_west_right_turn_morning_peak.4" vType="motorcycle" speedFactor="1.00" vaporized=""/>
    <tripinfo id="from_east_straight_morning_peak.4" depart="13.00" departLane="1354145734#1_0" departPos="2.30" departSpeed="0.00" departDelay="7.54" arrival="95.00" arrivalLane="638541495#1_0" arrivalPos="26.02" arrivalSpeed="5.81" duration="82.00" routeLength="629.94" waitingTime="0.00" waitingCount="0" stopTime="0.00" timeLoss="21.68" rerouteNo="1" devices="tripinfo_from_east_straight_morning_peak.4 routing_from_east_straight_morning_peak.4" vType="motorcycle" speedFactor="1.00" vaporized=""/>
    <tripinfo id="from_west_straight_morning_peak.14" depart="33.00" departLane="263812623#1_0" departPos="7.20" departSpeed="0.00" departDelay="16.31" arrival="96.00" arrivalLane="638541497#16_0" arrivalPos="109.58" arrivalSpeed="26.28" duration="63.00" routeLength="1043.89" waitingTime="0.00" waitingCount="0" stopTime="0.00" timeLoss="10.84" rerouteNo="1" devices="tripinfo_from_west_straight_morning_peak.14 routing_from_west_straight_morning_peak.14" vType="truck" speedFactor="1.00" vaporized=""/>
    <tripinfo id="from_west_straight_morning_peak.15" depart="40.00" departLane="263812623#1_0" departPos="2.30" departSpeed="0.00" departDelay="22.12" arrival="99.00" arrivalLane="638541497#16_1" arrivalPos="109.58" arrivalSpeed="27.85" duration="59.00" routeLength="1048.79" waitingTime="0.00" waitingCount="0" stopTime="0.00" timeLoss="7.18" rerouteNo="1" devices="tripinfo_from_west_straight_morning_peak.15 routing_from_west_straight_morning_peak.15" vType="motorcycle" speedFactor="1.02" vaporized=""/>
    <tripinfo id="from_east_straight_morning_peak.3" depart="12.00" departLane="1354145734#1_0" departPos="2.30" departSpeed="0.00" departDelay="7.91" arrival="100.00" arrivalLane="638541495#1_0" arrivalPos="26.02" arrivalSpeed="6.04" duration="88.00" routeLength="629.94" waitingTime="3.00" waitingCount="2" stopTime="0.00" timeLoss="27.28" rerouteNo="1" devices="tripinfo_from_east_straight_morning_peak.3 routing_from_east_straight_morning_peak.3" vType="motorcycle" speedFactor="1.00" vaporized=""/>
    <tripinfo id="from_west_straight_morning_peak.16" depart="42.00" departLane="263812623#1_0" departPos="2.30" departSpeed="0.00" departDelay="22.93" arrival="100.00" arrivalLane="638541497#16_0" arrivalPos="109.58" arrivalSpeed="27.87" duration="58.00" routeLength="1048.79" waitingTime="0.00" waitingCount="0" stopTime="0.00" timeLoss="7.23" rerouteNo="1" devices="tripinfo_from_west_straight_morning_peak.16 routing_from_west_straight_morning_peak.16" vType="motorcycle" speedFactor="1.03" vaporized=""/>
    <tripinfo id="from_east_straight_morning_peak.5" depart="16.00" departLane="1354145734#1_0" departPos="5.10" departSpeed="0.00" departDelay="9.18" arrival="102.00" arrivalLane="638541495#1_0" arrivalPos="26.02" arrivalSpeed="5.95" duration="86.00" routeLength="627.14" waitingTime="0.00" waitingCount="0" stopTime="0.00" timeLoss="14.66" rerouteNo="1" devices="tripinfo_from_east_straight_morning_peak.5 routing_from_east_straight_morning_peak.5" vType="car" speedFactor="0.85" vaporized=""/>
    <tripinfo id="from_west_straight_morning_peak.17" depart="43.00" departLane="263812623#1_0" departPos="2.30" departSpeed="0.00" departDelay="22.74" arrival="102.00" arrivalLane="638541497#16_0" arrivalPos="109.58" arrivalSpeed="27.17" duration="59.00" routeLength="1048.79" waitingTime="0.00" waitingCount="0" stopTime="0.00" timeLoss="7.76" rerouteNo="1" devices="tripinfo_from_west_straight_morning_peak.17 routing_from_west_straight_morning_peak.17" vType="motorcycle" speedFactor="1.03" vaporized=""/>
    <tripinfo id="2" depart="8.00" departLane="26284129#7_0" departPos="5.10" departSpeed="0.00" departDelay="0.80" arrival="103.00" arrivalLane="213042766#5_0" arrivalPos="50.03" arrivalSpeed="9.97" duration="95.00" routeLength="1012.11" waitingTime="0.00" waitingCount="0" stopTime="0.00" timeLoss="15.52" rerouteNo="1" devices="tripinfo_2 routing_2" vType="DEFAULT_VEHTYPE" speedFactor="0.80" vaporized=""/>
    <tripinfo id="11" depart="40.00" departLane="-484510040#17_0" departPos="5.10" departSpeed="0.00" departDelay="0.40" arrival="103.00" arrivalLane="-169711276#0_0" arrivalPos="9.15" arrivalSpeed="11.12" duration="63.00" routeLength="610.46" waitingTime="0.00" waitingCount="0" stopTime="0.00" timeLoss="19.66" rerouteNo="1" devices="tripinfo_11 routing_11" vType="DEFAULT_VEHTYPE" speedFactor="0.87" vaporized=""/>
    <tripinfo id="from_west_straight_morning_peak.18" depart="44.00" departLane="263812623#1_0" departPos="2.30" departSpeed="0.00" departDelay="22.54" arrival="103.00" arrivalLane="638541497#16_1" arrivalPos="109.58" arrivalSpeed="27.88" duration="59.00" routeLength="1048.79" waitingTime="0.00" waitingCount="0" stopTime="0.00" timeLoss="7.98" rerouteNo="1" devices="tripinfo_from_west_straight_morning_peak.18 routing_from_west_straight_morning_peak.18" vType="motorcycle" speedFactor="1.04" vaporized=""/>
    <tripinfo id="from_west_left_turn_morning_peak.4" depart="47.00" departLane="263812623#1_0" departPos="5.10" departSpeed="0.00" departDelay="24.74" arrival="103.00" arrivalLane="328349209#9_0" arrivalPos="20.69" arrivalSpeed="26.07" duration="56.00" routeLength="674.73" waitingTime="0.00" waitingCount="0" stopTime="0.00" timeLoss="14.63" rerouteNo="1" devices="tripinfo_from_west_left_turn_morning_peak.4 routing_from_west_left_turn_morning_peak.4" vType="car" speedFactor="0.95" vaporized=""/>
    <tripinfo id="from_east_straight_morning_peak.7" depart="28.00" departLane="1354145734#1_0" departPos="5.10" departSpeed="0.00" departDelay="18.45" arrival="104.00" arrivalLane="638541495#1_0" arrivalPos="26.02" arrivalSpeed="8.37" duration="76.00" routeLength="627.14" waitingTime="0.00" waitingCount="0" stopTime="0.00" timeLoss="21.05" rerouteNo="1" devices="tripinfo_from_east_straight_morning_peak.7 routing_from_east_straight_morning_peak.7" vType="car" speedFactor="1.10" vaporized=""/>
    <tripinfo id="from_west_left_turn_morning_peak.5" depart="55.00" departLane="263812623#1_0" departPos="2.30" departSpeed="0.00" departDelay="27.18" arrival="104.00" arrivalLane="328349209#9_0" arrivalPos="20.69" arrivalSpeed="30.39" duration="49.00" routeLength="677.53" waitingTime="0.00" waitingCount="0" stopTime="0.00" timeLoss="15.60" rerouteNo="1" devices="tripinfo_from_west_left_turn_morning_peak.5 routing_from_west_left_turn_morning_peak.5" vType="motorcycle" speedFactor="1.18" vaporized=""/>
    <tripinfo id="from_west_straight_morning_peak.19" depart="45.00" departLane="263812623#1_0" departPos="2.30" departSpeed="0.00" departDelay="22.35" arrival="105.00" arrivalLane="638541497#16_0" arrivalPos="109.58" arrivalSpeed="27.70" duration="60.00" routeLength="1048.79" waitingTime="0.00" waitingCount="0" stopTime="0.00" timeLoss="8.38" rerouteNo="1" devices="tripinfo_from_west_straight_morning_peak.19 routing_from_west_straight_morning_peak.19" vType="motorcycle" speedFactor="1.01" vaporized=""/>
    <tripinfo id="from_west_right_turn_morning_peak.5" depart="57.00" departLane="263812623#1_0" departPos="5.10" departSpeed="0.00" departDelay="29.18" arrival="106.00" arrivalLane="1148421491#1_0" arrivalPos="44.65" arrivalSpeed="7.47" duration="49.00" routeLength="498.83" waitingTime="0.00" waitingCount="0" stopTime="0.00" timeLoss="10.31" rerouteNo="1" devices="tripinfo_from_west_right_turn_morning_peak.5 routing_from_west_right_turn_morning_peak.5" vType="auto" speedFactor="1.00" vaporized=""/>
    <tripinfo id="from_west_straight_morning_peak.20" depart="50.00" departLane="263812623#1_0" departPos="2.30" departSpeed="0.00" departDelay="26.16" arrival="107.00" arrivalLane="638541497#16_0" arrivalPos="109.58" arrivalSpeed="27.44" duration="57.00" routeLength="1048.79" waitingTime="0.00" waitingCount="0" stopTime="0.00" timeLoss="6.84" rerouteNo="1" devices="tripinfo_from_west_straight_morning_peak.20 routing_from_west_straight_morning_peak.20" vType="motorcycle" speedFactor="1.06" vaporized=""/>
    <tripinfo id="30" depart="108.00" departLane="-37110889#1_0" departPos="5.10" departSpeed="0.00" departDelay="0.00" arrival="110.00" arrivalLane="-37110889#1_0" arrivalPos="11.84" arrivalSpeed="5.04" duration="2.00" routeLength="6.74" waitingTime="0.00" waitingCount="0" stopTime="0.00" timeLoss="1.68" rerouteNo="1" devices="tripinfo_30 routing_30" vType="DEFAULT_VEHTYPE" speedFactor="1.07" vaporized=""/>
    <tripinfo id="from_west_straight_morning_peak.22" depart="52.00" departLane="263812623#1_0" departPos="2.30" departSpeed="0.00" departDelay="25.78" arrival="110.00" arrivalLane="638541497#16_1" arrivalPos="109.58" arrivalSpeed="29.02" duration="58.00" routeLength="1048.79" waitingTime="0.00" waitingCount="0" stopTime="0.00" timeLoss="8.29" rerouteNo="1" devices="tripinfo_from_west_straight_morning_peak.22 routing_from_west_straight_morning_peak.22" vType="motorcycle" speedFactor="1.07" vaporized=""/>
    <tripinfo id="from_east_straight_morning_peak.9" depart="31.00" departLane="1354145734#1_0" departPos="5.10" departSpeed="0.00" departDelay="18.72" arrival="111.00" arrivalLane="638541495#1_1" arrivalPos="26.02" arrivalSpeed="7.80" duration="80.00" routeLength="627.14" waitingTime="0.00" waitingCount="0" stopTime="0.00" timeLoss="20.36" rerouteNo="1" devices="tripinfo_from_east_straight_morning_peak.9 routing_from_east_straight_morning_peak.9" vType="auto" speedFactor="1.01" vaporized=""/>